# vtk DataFile Version 3.0
Gray-Scott Simulation Output
ASCII
DATASET STRUCTURED_POINTS
DIMENSIONS 256 256 1
SPACING 1.0 1.0 1.0
ORIGIN 0 0 0
POINT_DATA 65536
SCALARS u double
LOOKUP_TABLE default
0 0 0 0 0 0 0 0 0 0 0 0 0 0 0 0 0 0 0 0 0 0 0 0 0 0 0 0 0 0 0 0 0 0 0 0 0 0 0 0 0 0 0 0 0 0 0 0 0 0 0 0 0 0 0 0 0 0 0 0 0 0 0 0 0 0 0 0 0 0 0 0 0 0 0 0 0 0 0 0 0 0 0 0 0 0 0 0 0 0 0 0 0 0 0 0 0 0 0 0 0 0 0 0 0 0 0 0 0 0 0 0 0 0 0 0 0 0 0 0 0 0 0 0 0 0 0 0 0 0 0 0 0 0 0 0 0 0 0 0 0 0 0 0 0 0 0 0 0 0 0 0 0 0 0 0 0 0 0 0 0 0 0 0 0 0 0 0 0 0 0 0 0 0 0 0 0 0 0 0 0 0 0 0 0 0 0 0 0 0 0 0 0 0 0 0 0 0 0 0 0 0 0 0 0 0 0 0 0 0 0 0 0 0 0 0 0 0 0 0 0 0 0 0 0 0 0 0 0 0 0 0 0 0 0 0 0 0 0 0 0 0 0 0 0 0 0 0 0 0 0 0 0 0 0 0 
0 2.95497e-89 1.37054e-88 6.01411e-88 2.60914e-87 1.12141e-86 4.77515e-86 2.01435e-85 8.41735e-85 3.48397e-84 1.42823e-83 5.79845e-83 2.3312e-82 9.2804e-82 3.65794e-81 1.42742e-80 5.51412e-80 2.10848e-79 7.97989e-79 2.98893e-78 1.10787e-77 4.06324e-77 1.47444e-76 5.29314e-76 1.87969e-75 6.60243e-75 2.29362e-74 7.87945e-74 2.67658e-73 8.98941e-73 2.9847e-72 9.7958e-72 3.17763e-71 1.01869e-70 3.22703e-70 1.01004e-69 3.1232e-69 9.53961e-69 2.87792e-68 8.57419e-68 2.52242e-67 7.32648e-67 2.10074e-66 5.94555e-66 1.66071e-65 4.57745e-65 1.24485e-64 3.33977e-64 8.83812e-64 2.30667e-63 5.93651e-63 1.50637e-62 3.76812e-62 9.29059e-62 2.25747e-61 5.405e-61 1.27496e-60 2.96247e-60 6.7796e-60 1.52783e-59 3.38998e-59 7.40463e-59 1.59192e-58 3.36807e-58 7.01154e-58 1.43597e-57 2.89275e-57 5.73109e-57 1.11649e-56 2.13843e-56 4.02615e-56 7.45026e-56 1.3548e-55 2.42066e-55 4.24899e-55 7.32605e-55 1.24059e-54 2.06301e-54 3.36853e-54 5.39999e-54 8.49794e-54 1.31268e-53 1.99019e-53 2.96134e-53 4.32428e-53 6.1966e-53 8.71358e-53 1.20238e-52 1.62815e-52 2.1636e-52 2.82174e-52 3.61214e-52 4.5392e-52 5.60072e-52 6.78671e-52 8.07893e-52 9.45114e-52 1.08702e-51 1.22982e-51 1.36952e-51 1.50221e-51 1.62443e-51 1.73344e-51 1.82744e-51 1.90571e-51 1.96856e-51 2.01733e-51 2.05407e-51 2.08139e-51 2.10206e-51 2.11882e-51 2.13408e-51 2.14973e-51 2.16711e-51 2.18692e-51 2.20933e-51 2.23405e-51 2.26048e-51 2.28788e-51 2.31547e-51 2.34258e-51 2.36869e-51 2.39351e-51 2.41695e-51 2.43911e-51 2.46019e-51 2.48049e-51 2.50024e-51 2.51962e-51 2.53863e-51 2.5571e-51 2.57465e-51 2.59069e-51 2.60446e-51 2.61511e-51 2.62179e-51 2.62368e-51 2.62018e-51 2.6109e-51 2.59576e-51 2.57501e-51 2.54922e-51 2.51918e-51 2.48588e-51 2.45035e-51 2.41357e-51 2.37635e-51 2.33928e-51 2.30267e-51 2.26655e-51 2.23074e-51 2.1949e-51 2.15867e-51 2.1218e-51 2.08425e-51 2.04629e-51 2.00855e-51 1.97202e-51 1.93795e-51 1.90778e-51 1.88297e-51 1.8648e-51 1.85422e-51 1.8517e-51 1.85717e-51 1.86996e-51 1.88888e-51 1.91231e-51 1.9384e-51 1.96523e-51 1.99102e-51 2.01431e-51 2.03407e-51 2.04979e-51 2.06146e-51 2.06953e-51 2.07477e-51 2.07814e-51 2.08063e-51 2.08309e-51 2.08604e-51 2.08964e-51 2.09358e-51 2.09706e-51 2.09886e-51 2.09739e-51 2.09084e-51 2.07731e-51 2.05496e-51 2.02215e-51 1.9776e-51 1.92051e-51 1.85059e-51 1.76811e-51 1.67391e-51 1.56934e-51 1.45622e-51 1.33669e-51 1.21313e-51 1.08803e-51 9.63886e-52 8.43045e-52 7.27633e-52 6.19454e-52 5.1993e-52 4.30061e-52 3.50415e-52 2.81145e-52 2.2203e-52 1.72537e-52 1.31888e-52 9.91429e-53 7.32732e-53 5.32311e-53 3.80053e-53 2.66636e-53 1.83797e-53 1.2447e-53 8.28077e-54 5.41178e-54 3.47428e-54 2.19104e-54 1.35739e-54 8.2612e-55 4.93963e-55 2.90193e-55 1.67516e-55 9.50259e-56 5.29771e-56 2.90298e-56 1.56372e-56 8.28109e-57 4.31207e-57 2.20806e-57 1.11205e-57 5.50917e-58 2.6851e-58 1.28768e-58 6.07708e-59 2.82283e-59 1.29076e-59 5.81081e-60 2.5759e-60 1.12457e-60 4.83585e-61 2.04859e-61 8.55061e-62 3.51693e-62 1.42567e-62 5.6967e-63 2.24403e-63 8.71381e-64 3.33082e-64 1.23887e-64 4.07343e-65 0 
0 1.36894e-88 6.34945e-88 2.78635e-87 1.20888e-86 5.19602e-86 2.21267e-85 9.33449e-85 3.90084e-84 1.61468e-83 6.61973e-83 2.68773e-82 1.08066e-81 4.3024e-81 1.69597e-80 6.61871e-80 2.55705e-79 9.77861e-79 3.70126e-78 1.38649e-77 5.1397e-77 1.88527e-76 6.84201e-76 2.45655e-75 8.72483e-75 3.06503e-74 1.06492e-73 3.65893e-73 1.2431e-72 4.17568e-72 1.38665e-71 4.55179e-71 1.4768e-70 4.7352e-70 1.50031e-69 4.69681e-69 1.45261e-68 4.43781e-68 1.33909e-67 3.99039e-67 1.17418e-66 3.41124e-66 9.78341e-66 2.76957e-65 7.73785e-65 2.13332e-64 5.8031e-64 1.5573e-63 4.1222e-63 1.07615e-62 2.77035e-62 7.03162e-62 1.75942e-61 4.33922e-61 1.05467e-60 2.5259e-60 5.95997e-60 1.38526e-59 3.17111e-59 7.14847e-59 1.5866e-58 3.46662e-58 7.45515e-58 1.57779e-57 3.28559e-57 6.73098e-57 1.35636e-56 2.688e-56 5.23812e-56 1.00356e-55 1.89e-55 3.49838e-55 6.36341e-55 1.13727e-54 1.99678e-54 3.4437e-54 5.83295e-54 9.70205e-54 1.58452e-53 2.54062e-53 3.99894e-53 6.17831e-53 9.36864e-53 1.39423e-52 2.03619e-52 2.91815e-52 4.10386e-52 5.66333e-52 7.66922e-52 1.01918e-51 1.32923e-51 1.70157e-51 2.13824e-51 2.63818e-51 3.19666e-51 3.80504e-51 4.45092e-51 5.11867e-51 5.79039e-51 6.44722e-51 7.07082e-51 7.64487e-51 8.15651e-51 8.59731e-51 8.96386e-51 9.25782e-51 9.4854e-51 9.65644e-51 9.78314e-51 9.87869e-51 9.95591e-51 1.00261e-50 1.00983e-50 1.01788e-50 1.02707e-50 1.0375e-50 1.04902e-50 1.06135e-50 1.07414e-50 1.08703e-50 1.09969e-50 1.11189e-50 1.12349e-50 1.13444e-50 1.1448e-50 1.15465e-50 1.16414e-50 1.17337e-50 1.18242e-50 1.19131e-50 1.19995e-50 1.20815e-50 1.21565e-50 1.22209e-50 1.22708e-50 1.23021e-50 1.2311e-50 1.22946e-50 1.22512e-50 1.21805e-50 1.20835e-50 1.19629e-50 1.18224e-50 1.16668e-50 1.15006e-50 1.13287e-50 1.11547e-50 1.09815e-50 1.08105e-50 1.06417e-50 1.04744e-50 1.03069e-50 1.01377e-50 9.96531e-51 9.78974e-51 9.6122e-51 9.43564e-51 9.26465e-51 9.10518e-51 8.96396e-51 8.8478e-51 8.76271e-51 8.71317e-51 8.70141e-51 8.72706e-51 8.78701e-51 8.87565e-51 8.98544e-51 9.10766e-51 9.23333e-51 9.35412e-51 9.46316e-51 9.55566e-51 9.6292e-51 9.68375e-51 9.7214e-51 9.74581e-51 9.7615e-51 9.7731e-51 9.78453e-51 9.79836e-51 9.81528e-51 9.83383e-51 9.85029e-51 9.85894e-51 9.85236e-51 9.82204e-51 9.75904e-51 9.65472e-51 9.50142e-51 9.29314e-51 9.02602e-51 8.69866e-51 8.31234e-51 7.87094e-51 7.38077e-51 6.85025e-51 6.28941e-51 5.70941e-51 5.12195e-51 4.53868e-51 3.97068e-51 3.42796e-51 2.91904e-51 2.45063e-51 2.02749e-51 1.65235e-51 1.32596e-51 1.04734e-51 8.13996e-52 6.223e-52 4.67844e-52 3.45795e-52 2.51225e-52 1.79373e-52 1.25845e-52 8.67461e-53 5.87437e-53 3.9079e-53 2.55376e-53 1.63932e-53 1.03372e-53 6.40323e-54 3.89652e-54 2.32948e-54 1.36829e-54 7.89708e-55 4.47886e-55 2.49646e-55 1.36769e-55 7.36556e-56 3.89973e-56 2.03016e-56 1.03932e-56 5.23307e-57 2.59185e-57 1.26291e-57 6.05494e-58 2.85683e-58 1.32667e-58 6.06468e-59 2.72953e-59 1.20967e-59 5.27973e-60 2.26979e-60 9.61296e-61 4.01133e-61 1.64947e-61 6.68485e-62 2.67048e-62 1.05169e-62 4.08286e-63 1.56029e-63 5.80211e-64 1.90741e-64 0 
0 5.99926e-88 2.78272e-87 1.22121e-86 5.29859e-86 2.27759e-85 9.69949e-85 4.09215e-84 1.71021e-83 7.07964e-83 2.90269e-82 1.17865e-81 4.73941e-81 1.88707e-80 7.43943e-80 2.90362e-79 1.1219e-78 4.29083e-78 1.6243e-77 6.08537e-77 2.25614e-76 8.27677e-76 3.00422e-75 1.07879e-74 3.83209e-74 1.34642e-73 4.6788e-73 1.60786e-72 5.46356e-72 1.83559e-71 6.09674e-71 2.00169e-70 6.49566e-70 2.08319e-69 6.60185e-69 2.06719e-68 6.39477e-68 1.95409e-67 5.89777e-67 1.75793e-66 5.17404e-66 1.50355e-65 4.3133e-65 1.22137e-64 3.41331e-64 9.41311e-64 2.5613e-63 6.87542e-63 1.82048e-62 4.754e-62 1.22421e-61 3.10823e-61 7.77974e-61 1.91932e-60 4.66652e-60 1.11799e-59 2.63882e-59 6.13541e-59 1.40498e-58 3.16826e-58 7.03435e-58 1.53749e-57 3.30759e-57 7.00252e-57 1.45871e-56 2.98939e-56 6.02596e-56 1.19462e-55 2.32874e-55 4.46306e-55 8.40802e-55 1.55681e-54 2.83267e-54 5.06412e-54 8.89402e-54 1.53432e-53 2.59955e-53 4.32502e-53 7.0653e-53 1.13312e-52 1.78392e-52 2.7567e-52 4.18098e-52 6.22315e-52 9.08989e-52 1.30288e-51 1.83248e-51 2.52904e-51 3.42504e-51 4.55182e-51 5.93671e-51 7.59967e-51 9.54978e-51 1.17821e-50 1.42754e-50 1.69908e-50 1.98728e-50 2.28513e-50 2.58464e-50 2.87738e-50 3.15514e-50 3.41066e-50 3.63821e-50 3.83404e-50 3.99667e-50 4.12686e-50 4.22742e-50 4.30275e-50 4.35834e-50 4.40007e-50 4.43367e-50 4.46421e-50 4.4957e-50 4.53089e-50 4.57127e-50 4.61718e-50 4.66799e-50 4.72247e-50 4.77901e-50 4.83602e-50 4.89205e-50 4.94605e-50 4.99739e-50 5.04588e-50 5.0917e-50 5.13532e-50 5.17729e-50 5.21816e-50 5.25825e-50 5.2976e-50 5.33585e-50 5.37219e-50 5.40542e-50 5.43396e-50 5.45607e-50 5.46993e-50 5.4739e-50 5.46668e-50 5.44747e-50 5.41614e-50 5.37318e-50 5.31977e-50 5.25758e-50 5.18863e-50 5.11507e-50 5.03894e-50 4.96193e-50 4.88526e-50 4.80956e-50 4.7349e-50 4.66086e-50 4.58675e-50 4.51182e-50 4.43551e-50 4.35775e-50 4.27909e-50 4.20084e-50 4.12504e-50 4.05432e-50 3.99169e-50 3.94016e-50 3.90242e-50 3.88045e-50 3.87525e-50 3.88664e-50 3.91326e-50 3.95262e-50 4.00136e-50 4.05561e-50 4.11138e-50 4.16498e-50 4.21335e-50 4.25436e-50 4.28694e-50 4.31109e-50 4.32773e-50 4.3385e-50 4.34541e-50 4.35051e-50 4.35556e-50 4.36169e-50 4.36923e-50 4.37751e-50 4.38491e-50 4.38886e-50 4.38609e-50 4.37281e-50 4.34505e-50 4.29895e-50 4.23113e-50 4.13889e-50 4.0205e-50 3.87532e-50 3.70391e-50 3.50795e-50 3.29024e-50 3.05449e-50 2.80515e-50 2.54716e-50 2.28571e-50 2.026e-50 1.77296e-50 1.53106e-50 1.30412e-50 1.09514e-50 9.06274e-51 7.38758e-51 5.92958e-51 4.68449e-51 3.6414e-51 2.78424e-51 2.09342e-51 1.54744e-51 1.1243e-51 8.02772e-52 5.63216e-52 3.88224e-52 2.62891e-52 1.74876e-52 1.14269e-52 7.33445e-53 4.62432e-53 2.86406e-53 1.74256e-53 1.04158e-53 6.11683e-54 3.5296e-54 2.00138e-54 1.11529e-54 6.10861e-55 3.2889e-55 1.74087e-55 9.06036e-56 4.63711e-56 2.33417e-56 1.15574e-56 5.62989e-57 2.69843e-57 1.27279e-57 5.90892e-58 2.70039e-58 1.215e-58 5.38306e-59 2.3488e-59 1.00947e-59 4.27405e-60 1.78298e-60 7.32958e-61 2.96963e-61 1.18598e-61 4.66938e-62 1.81225e-62 6.9238e-63 2.57404e-63 8.46032e-64 0 
0 2.59919e-87 1.20568e-86 5.29146e-86 2.296e-85 9.86992e-85 4.20356e-84 1.77358e-83 7.41282e-83 3.06888e-82 1.25837e-81 5.1101e-81 2.055e-80 8.18314e-80 3.22639e-79 1.25941e-78 4.86665e-78 1.86153e-77 7.04774e-77 2.64076e-76 9.7919e-76 3.59273e-75 1.30425e-74 4.68418e-74 1.66418e-73 5.84817e-73 2.03258e-72 6.98615e-72 2.37436e-71 7.97865e-71 2.65056e-70 8.70412e-70 2.82516e-69 9.06241e-69 2.87261e-68 8.99688e-68 2.7838e-67 8.5087e-67 2.56871e-66 7.65842e-66 2.25466e-65 6.55369e-65 1.8806e-64 5.32669e-64 1.48905e-63 4.10766e-63 1.11803e-62 3.00209e-62 7.95144e-62 2.0771e-61 5.35049e-61 1.35892e-60 3.40243e-60 8.39689e-60 2.04227e-59 4.89447e-59 1.15566e-58 2.68793e-58 6.15742e-58 1.38901e-57 3.08507e-57 6.74542e-57 1.45166e-56 3.07444e-56 6.40674e-56 1.31343e-55 2.64855e-55 5.25249e-55 1.02426e-54 1.96369e-54 3.70068e-54 6.85443e-54 1.24759e-53 2.23111e-53 3.91967e-53 6.76391e-53 1.14632e-52 1.90773e-52 3.11726e-52 5.00064e-52 7.87457e-52 1.21712e-51 1.84632e-51 2.74863e-51 4.01545e-51 5.75627e-51 8.09701e-51 1.11759e-50 1.51364e-50 2.0117e-50 2.62383e-50 3.35881e-50 4.2206e-50 5.20697e-50 6.3084e-50 7.50768e-50 8.78015e-50 1.00948e-49 1.14162e-49 1.2707e-49 1.39311e-49 1.50563e-49 1.60575e-49 1.69181e-49 1.76318e-49 1.8202e-49 1.86413e-49 1.89693e-49 1.92103e-49 1.93903e-49 1.95347e-49 1.96659e-49 1.98014e-49 1.99536e-49 2.01289e-49 2.03288e-49 2.05505e-49 2.07885e-49 2.10357e-49 2.12852e-49 2.15304e-49 2.17668e-49 2.19916e-49 2.22039e-49 2.24045e-49 2.25954e-49 2.27792e-49 2.29581e-49 2.31337e-49 2.33061e-49 2.34736e-49 2.36329e-49 2.37785e-49 2.39037e-49 2.40006e-49 2.40615e-49 2.40789e-49 2.40474e-49 2.39633e-49 2.3826e-49 2.36379e-49 2.34038e-49 2.31314e-49 2.28293e-49 2.25071e-49 2.21736e-49 2.18364e-49 2.15007e-49 2.11693e-49 2.08425e-49 2.05184e-49 2.0194e-49 1.98659e-49 1.95318e-49 1.91911e-49 1.88463e-49 1.85033e-49 1.81708e-49 1.78606e-49 1.75858e-49 1.73597e-49 1.71941e-49 1.70977e-49 1.70749e-49 1.7125e-49 1.7242e-49 1.74149e-49 1.76289e-49 1.78672e-49 1.8112e-49 1.83473e-49 1.85595e-49 1.87394e-49 1.88822e-49 1.89879e-49 1.90607e-49 1.91076e-49 1.91377e-49 1.91599e-49 1.91819e-49 1.92089e-49 1.92421e-49 1.92787e-49 1.93116e-49 1.93295e-49 1.93181e-49 1.92606e-49 1.91396e-49 1.89382e-49 1.86414e-49 1.82374e-49 1.77184e-49 1.70815e-49 1.63292e-49 1.54686e-49 1.45121e-49 1.34757e-49 1.2379e-49 1.12437e-49 1.00926e-49 8.94848e-50 7.83319e-50 6.76643e-50 5.7651e-50 4.8426e-50 4.00849e-50 3.26835e-50 2.62388e-50 2.07333e-50 1.61194e-50 1.23267e-50 9.26935e-51 6.85242e-51 4.97899e-51 3.5552e-51 2.49431e-51 1.71929e-51 1.16419e-51 7.74366e-52 5.05947e-52 3.24708e-52 2.04699e-52 1.2676e-52 7.71104e-53 4.60823e-53 2.70569e-53 1.56092e-53 8.84878e-54 4.92984e-54 2.69947e-54 1.45302e-54 7.68895e-55 4.00059e-55 2.04692e-55 1.03005e-55 5.09868e-56 2.48293e-56 1.18972e-56 5.60993e-57 2.6036e-57 1.18948e-57 5.35026e-58 2.36969e-58 1.03365e-58 4.4411e-59 1.87976e-59 7.83933e-60 3.22168e-60 1.3049e-60 5.20987e-61 2.05061e-61 7.9564e-62 3.03895e-62 1.12949e-62 3.71161e-63 0 
0 1.1156e-86 5.17512e-86 2.27139e-85 9.85632e-85 4.23728e-84 1.80477e-83 7.61535e-83 3.18315e-82 1.31793e-81 5.40453e-81 2.19494e-80 8.82773e-80 3.51563e-79 1.38627e-78 5.41188e-78 2.09153e-77 8.00131e-77 3.02969e-76 1.13537e-75 4.21054e-75 1.54512e-74 5.61003e-74 2.01515e-73 7.16059e-73 2.51677e-72 8.74881e-72 3.00761e-71 1.02238e-70 3.43623e-70 1.14177e-69 3.75025e-69 1.21751e-68 3.90635e-68 1.23853e-67 3.87993e-67 1.20082e-66 3.67123e-66 1.1086e-65 3.3061e-65 9.7359e-65 2.83075e-64 8.12526e-64 2.30211e-63 6.43735e-63 1.77633e-62 4.83636e-62 1.29905e-61 3.44183e-61 8.99381e-61 2.31754e-60 5.88808e-60 1.47476e-59 3.64084e-59 8.85829e-59 2.12373e-58 5.01628e-58 1.16715e-57 2.67467e-57 6.03584e-57 1.3411e-56 2.93338e-56 6.31523e-56 1.33799e-55 2.78925e-55 5.72034e-55 1.15394e-54 2.2893e-54 4.46588e-54 8.56498e-54 1.6147e-53 2.9918e-53 5.44732e-53 9.74486e-53 1.71256e-52 2.95618e-52 5.01153e-52 8.34268e-52 1.36358e-51 2.188e-51 3.4463e-51 5.32793e-51 8.08392e-51 1.20368e-50 1.75874e-50 2.52157e-50 3.54738e-50 4.89676e-50 6.63256e-50 8.81543e-50 1.14981e-49 1.47189e-49 1.8495e-49 2.28163e-49 2.76406e-49 3.28922e-49 3.84625e-49 4.42152e-49 4.99949e-49 5.56379e-49 6.09855e-49 6.58975e-49 7.02635e-49 7.40123e-49 7.71161e-49 7.9591e-49 8.14925e-49 8.29071e-49 8.39414e-49 8.47099e-49 8.53238e-49 8.58809e-49 8.64586e-49 8.71102e-49 8.78641e-49 8.87262e-49 8.96846e-49 9.0715e-49 9.17867e-49 9.28683e-49 9.39322e-49 9.4958e-49 9.59333e-49 9.68545e-49 9.77252e-49 9.85539e-49 9.93514e-49 1.00128e-48 1.0089e-48 1.01638e-48 1.02366e-48 1.03058e-48 1.0369e-48 1.04234e-48 1.04656e-48 1.0492e-48 1.04997e-48 1.0486e-48 1.04495e-48 1.03899e-48 1.03082e-48 1.02066e-48 1.00882e-48 9.95708e-49 9.81717e-49 9.67241e-49 9.52603e-49 9.38035e-49 9.23656e-49 9.09477e-49 8.95417e-49 8.81342e-49 8.67103e-49 8.52596e-49 8.37802e-49 8.22825e-49 8.07917e-49 7.93465e-49 7.79977e-49 7.68026e-49 7.5819e-49 7.50986e-49 7.46793e-49 7.45805e-49 7.47989e-49 7.53083e-49 7.60611e-49 7.69931e-49 7.80301e-49 7.90958e-49 8.01193e-49 8.10424e-49 8.18244e-49 8.24448e-49 8.29036e-49 8.32189e-49 8.34219e-49 8.35515e-49 8.36471e-49 8.37425e-49 8.38597e-49 8.40048e-49 8.41654e-49 8.43104e-49 8.43911e-49 8.43444e-49 8.40981e-49 8.35759e-49 8.27041e-49 8.1417e-49 7.96629e-49 7.74079e-49 7.46392e-49 7.13661e-49 6.76204e-49 6.34544e-49 5.89385e-49 5.41571e-49 4.92046e-49 4.41805e-49 3.91842e-49 3.4311e-49 2.96474e-49 2.52675e-49 2.12303e-49 1.75782e-49 1.4336e-49 1.15118e-49 9.09816e-50 7.07471e-50 5.41095e-50 4.06936e-50 3.00856e-50 2.18616e-50 1.56106e-50 1.09523e-50 7.5491e-51 5.11149e-51 3.39969e-51 2.22103e-51 1.42525e-51 8.98356e-52 5.56217e-52 3.38295e-52 2.0213e-52 1.18653e-52 6.84355e-53 3.87863e-53 2.16031e-53 1.18262e-53 6.3638e-54 3.36657e-54 1.75112e-54 8.957e-55 4.50595e-55 2.22973e-55 1.08548e-55 5.19951e-56 2.45097e-56 1.13714e-56 5.19347e-57 2.33526e-57 1.03398e-57 4.50876e-58 1.93658e-58 8.19426e-59 3.41624e-59 1.40352e-59 5.68301e-60 2.26828e-60 8.92527e-61 3.462e-61 1.32193e-61 4.91191e-62 1.61375e-62 0 
0 4.74369e-86 2.20066e-85 9.65944e-85 4.19184e-84 1.80222e-83 7.67676e-83 3.23952e-82 1.35421e-81 5.60738e-81 2.29968e-80 9.34064e-80 3.75707e-79 1.49642e-78 5.90131e-78 2.3041e-77 8.90582e-77 3.40744e-76 1.2904e-75 4.83646e-75 1.79388e-74 6.58393e-74 2.39089e-73 8.58967e-73 3.05276e-72 1.07317e-71 3.73125e-71 1.28295e-70 4.36205e-70 1.46639e-69 4.87349e-69 1.60109e-68 5.1991e-68 1.66851e-67 5.29135e-67 1.65804e-66 5.13284e-66 1.56966e-65 4.74119e-65 1.41432e-64 4.1661e-64 1.21166e-63 3.47894e-63 9.85976e-63 2.75793e-62 7.6127e-62 2.07335e-61 5.57089e-61 1.4765e-60 3.85955e-60 9.94879e-60 2.52855e-59 6.3354e-59 1.56464e-58 3.80823e-58 9.13344e-58 2.15815e-57 5.02335e-57 1.1516e-56 2.59979e-56 5.7787e-56 1.26447e-55 2.72332e-55 5.7721e-55 1.20376e-54 2.46969e-54 4.98395e-54 9.89145e-54 1.93032e-53 3.70351e-53 6.98458e-53 1.29462e-52 2.35801e-52 4.21979e-52 7.41837e-52 1.28096e-51 2.17226e-51 3.61725e-51 5.91396e-51 9.49209e-51 1.49547e-50 2.31252e-50 3.50948e-50 5.22658e-50 7.63805e-50 1.09526e-49 1.54102e-49 2.12743e-49 2.88178e-49 3.83042e-49 4.99621e-49 6.39574e-49 8.03634e-49 9.91346e-49 1.20087e-48 1.42888e-48 1.67065e-48 1.92024e-48 2.17088e-48 2.41545e-48 2.64706e-48 2.85962e-48 3.04837e-48 3.21022e-48 3.344e-48 3.45044e-48 3.53198e-48 3.5924e-48 3.63635e-48 3.66881e-48 3.69463e-48 3.71804e-48 3.7424e-48 3.77002e-48 3.80213e-48 3.83898e-48 3.88004e-48 3.92425e-48 3.97028e-48 4.01677e-48 4.06252e-48 4.10664e-48 4.14859e-48 4.18822e-48 4.22567e-48 4.26131e-48 4.29561e-48 4.32902e-48 4.36181e-48 4.39401e-48 4.42533e-48 4.45511e-48 4.48236e-48 4.50579e-48 4.52396e-48 4.53538e-48 4.53869e-48 4.53283e-48 4.51713e-48 4.49149e-48 4.45631e-48 4.41256e-48 4.36161e-48 4.30515e-48 4.24493e-48 4.18263e-48 4.11965e-48 4.05698e-48 3.99514e-48 3.93416e-48 3.8737e-48 3.81317e-48 3.75192e-48 3.6895e-48 3.62581e-48 3.56132e-48 3.4971e-48 3.43483e-48 3.37669e-48 3.32516e-48 3.28275e-48 3.25169e-48 3.23361e-48 3.22936e-48 3.2388e-48 3.26079e-48 3.29329e-48 3.33351e-48 3.37826e-48 3.42424e-48 3.46839e-48 3.50819e-48 3.54188e-48 3.5686e-48 3.58833e-48 3.60187e-48 3.61057e-48 3.6161e-48 3.62018e-48 3.62428e-48 3.62933e-48 3.63562e-48 3.6426e-48 3.64895e-48 3.65255e-48 3.65068e-48 3.64023e-48 3.61791e-48 3.5805e-48 3.52519e-48 3.44972e-48 3.35262e-48 3.2333e-48 3.09216e-48 2.93055e-48 2.75071e-48 2.55564e-48 2.349e-48 2.13484e-48 1.91746e-48 1.70116e-48 1.49006e-48 1.28794e-48 1.098e-48 9.22833e-49 7.64294e-49 6.23484e-49 5.00772e-49 3.95858e-49 3.07873e-49 2.35506e-49 1.77136e-49 1.30972e-49 9.51762e-50 6.79639e-50 4.76833e-50 3.28657e-50 2.22521e-50 1.47988e-50 9.66712e-51 6.20263e-51 3.90903e-51 2.41985e-51 1.47149e-51 8.79023e-52 5.15883e-52 2.97473e-52 1.68552e-52 9.38541e-53 5.13641e-53 2.76316e-53 1.46133e-53 7.59876e-54 3.88554e-54 1.95405e-54 9.66632e-55 4.70423e-55 2.2526e-55 1.06149e-55 4.92319e-56 2.24774e-56 1.01036e-56 4.47208e-57 1.94944e-57 8.37032e-58 3.54058e-58 1.47561e-58 6.06038e-59 2.45314e-59 9.78819e-60 3.85028e-60 1.49302e-60 5.69923e-61 2.11707e-61 6.95381e-62 0 
0 1.99819e-85 9.27042e-85 4.06937e-84 1.76609e-83 7.59362e-83 3.23484e-82 1.36519e-81 5.70741e-81 2.3635e-80 9.6941e-80 3.93788e-79 1.5841e-78 6.31012e-78 2.48878e-77 9.71842e-77 3.75687e-76 1.43761e-75 5.44505e-75 2.04113e-74 7.5719e-74 2.7795e-73 1.00952e-72 3.62751e-72 1.28945e-71 4.53378e-71 1.57664e-70 5.42221e-70 1.84394e-69 6.20013e-69 2.06105e-68 6.77272e-68 2.19978e-67 7.0613e-67 2.23992e-66 7.02056e-66 2.17396e-65 6.64994e-65 2.00919e-64 5.99521e-64 1.76651e-63 5.13924e-63 1.47604e-62 4.1846e-62 1.17088e-61 3.23303e-61 8.80825e-61 2.3675e-60 6.27698e-60 1.64138e-59 4.23253e-59 1.07612e-58 2.69728e-58 6.66391e-58 1.62258e-57 3.89301e-57 9.20244e-57 2.14283e-56 4.9144e-56 1.10989e-55 2.46802e-55 5.40261e-55 1.16405e-54 2.46822e-54 5.14952e-54 1.05693e-53 2.1338e-53 4.23658e-53 8.27102e-53 1.5875e-52 2.99508e-52 5.5536e-52 1.01191e-51 1.81153e-51 3.18578e-51 5.5029e-51 9.33493e-51 1.55494e-50 2.54299e-50 4.08273e-50 6.43403e-50 9.95168e-50 1.51061e-49 2.25017e-49 3.28896e-49 4.71695e-49 6.6376e-49 9.16438e-49 1.24149e-48 1.65026e-48 2.15258e-48 2.75556e-48 3.46231e-48 4.27079e-48 5.173e-48 6.15455e-48 7.19496e-48 8.26857e-48 9.34613e-48 1.0397e-47 1.13914e-47 1.23032e-47 1.3112e-47 1.38046e-47 1.4376e-47 1.48296e-47 1.5176e-47 1.54316e-47 1.56164e-47 1.57521e-47 1.58594e-47 1.59566e-47 1.60583e-47 1.61742e-47 1.63096e-47 1.64656e-47 1.66399e-47 1.6828e-47 1.70239e-47 1.7222e-47 1.74169e-47 1.7605e-47 1.77838e-47 1.79528e-47 1.81124e-47 1.82644e-47 1.84106e-47 1.85531e-47 1.86929e-47 1.88303e-47 1.89639e-47 1.9091e-47 1.92073e-47 1.93074e-47 1.9385e-47 1.94339e-47 1.94481e-47 1.94232e-47 1.93563e-47 1.92469e-47 1.90968e-47 1.89101e-47 1.86927e-47 1.84518e-47 1.81949e-47 1.79291e-47 1.76605e-47 1.73933e-47 1.71297e-47 1.68698e-47 1.66121e-47 1.6354e-47 1.60929e-47 1.58267e-47 1.55549e-47 1.52797e-47 1.50055e-47 1.47395e-47 1.44911e-47 1.42709e-47 1.40896e-47 1.39568e-47 1.38796e-47 1.38614e-47 1.39019e-47 1.3996e-47 1.41351e-47 1.43072e-47 1.44986e-47 1.46952e-47 1.4884e-47 1.50541e-47 1.5198e-47 1.5312e-47 1.53961e-47 1.54537e-47 1.54906e-47 1.55141e-47 1.55313e-47 1.55487e-47 1.55703e-47 1.55973e-47 1.56275e-47 1.5655e-47 1.56709e-47 1.56637e-47 1.56198e-47 1.55252e-47 1.53662e-47 1.51307e-47 1.48089e-47 1.43945e-47 1.38849e-47 1.32817e-47 1.25905e-47 1.1821e-47 1.09858e-47 1.01006e-47 9.1826e-48 8.25024e-48 7.32197e-48 6.41551e-48 5.54704e-48 4.73048e-48 3.97702e-48 3.29471e-48 2.68842e-48 2.1598e-48 1.70768e-48 1.32837e-48 1.01628e-48 7.64489e-49 5.65306e-49 4.10827e-49 2.93374e-49 2.0583e-49 1.41864e-49 9.6045e-50 6.38694e-50 4.1717e-50 2.67629e-50 1.68638e-50 1.04375e-50 6.34566e-51 3.78986e-51 2.22367e-51 1.28191e-51 7.26148e-52 4.04225e-52 2.21158e-52 1.18937e-52 6.28814e-53 3.26872e-53 1.67088e-53 8.40011e-54 4.15396e-54 2.02088e-54 9.6736e-55 4.55688e-55 2.11275e-55 9.64261e-56 4.33286e-56 1.91715e-56 8.35421e-57 3.58582e-57 1.51625e-57 6.31716e-58 2.5936e-58 1.0495e-58 4.1862e-59 1.64615e-59 6.38121e-60 2.43511e-60 9.04297e-61 2.96959e-61 0 
0 8.33747e-85 3.86834e-84 1.69818e-83 7.37057e-83 3.16938e-82 1.35026e-81 5.69897e-81 2.38278e-80 9.86833e-80 4.04802e-79 1.64454e-78 6.61635e-78 2.63588e-77 1.03976e-76 4.06067e-76 1.56996e-75 6.00853e-75 2.27612e-74 8.53358e-74 3.16619e-73 1.16245e-72 4.22279e-72 1.51765e-71 5.39574e-71 1.89755e-70 6.60014e-70 2.27033e-69 7.72244e-69 2.5972e-68 8.63561e-68 2.83839e-67 9.22134e-67 2.96081e-66 9.39445e-66 2.94528e-65 9.12275e-65 2.79136e-64 8.43616e-64 2.51801e-63 7.42168e-63 2.15984e-62 6.20524e-62 1.75978e-61 4.92561e-61 1.36053e-60 3.70799e-60 9.96999e-60 2.64431e-59 6.91721e-59 1.78437e-58 4.5385e-58 1.13801e-57 2.81268e-57 6.85125e-57 1.64447e-56 3.88884e-56 9.05908e-56 2.07849e-55 4.69613e-55 1.0447e-54 2.28786e-54 4.93155e-54 1.04612e-53 2.18347e-53 4.48344e-53 9.05527e-53 1.79864e-52 3.51292e-52 6.7453e-52 1.27313e-51 2.36162e-51 4.30475e-51 7.7093e-51 1.35627e-50 2.34357e-50 3.97691e-50 6.62661e-50 1.08407e-49 1.74098e-49 2.74439e-49 4.24591e-49 6.44657e-49 9.60471e-49 1.40414e-48 2.01412e-48 2.83462e-48 3.91413e-48 5.3029e-48 7.04931e-48 9.19529e-48 1.1771e-47 1.47896e-47 1.82421e-47 2.20938e-47 2.6283e-47 3.07218e-47 3.53e-47 3.98927e-47 4.43686e-47 4.86009e-47 5.2478e-47 5.59129e-47 5.885e-47 6.12687e-47 6.31838e-47 6.46413e-47 6.57115e-47 6.64809e-47 6.70415e-47 6.74826e-47 6.7882e-47 6.83014e-47 6.87828e-47 6.93485e-47 7.00028e-47 7.07359e-47 7.15281e-47 7.23548e-47 7.31909e-47 7.40145e-47 7.4809e-47 7.55646e-47 7.62784e-47 7.6953e-47 7.7595e-47 7.8213e-47 7.88149e-47 7.94059e-47 7.99866e-47 8.05517e-47 8.10894e-47 8.15816e-47 8.20052e-47 8.2334e-47 8.25411e-47 8.26018e-47 8.24967e-47 8.2214e-47 8.17515e-47 8.11167e-47 8.03271e-47 7.94077e-47 7.83888e-47 7.73025e-47 7.61789e-47 7.50436e-47 7.39144e-47 7.28005e-47 7.17025e-47 7.06139e-47 6.95238e-47 6.84204e-47 6.7295e-47 6.61461e-47 6.49816e-47 6.3821e-47 6.26949e-47 6.16429e-47 6.07102e-47 5.99423e-47 5.93797e-47 5.90525e-47 5.89759e-47 5.91477e-47 5.95471e-47 6.01369e-47 6.08668e-47 6.16784e-47 6.25119e-47 6.33118e-47 6.40323e-47 6.46416e-47 6.51239e-47 6.54793e-47 6.57221e-47 6.58773e-47 6.59754e-47 6.60478e-47 6.6121e-47 6.62126e-47 6.63276e-47 6.64566e-47 6.65751e-47 6.66451e-47 6.66174e-47 6.6435e-47 6.60382e-47 6.53688e-47 6.43749e-47 6.30152e-47 6.12625e-47 5.91055e-47 5.65506e-47 5.36213e-47 5.03577e-47 4.68138e-47 4.30549e-47 3.91546e-47 3.51908e-47 3.1242e-47 2.73836e-47 2.36846e-47 2.02046e-47 1.69918e-47 1.40807e-47 1.14927e-47 9.23519e-48 7.30351e-48 5.68231e-48 4.34799e-48 3.27115e-48 2.41909e-48 1.75814e-48 1.25553e-48 8.80871e-49 6.071e-49 4.10993e-49 2.73283e-49 1.78476e-49 1.14482e-49 7.21251e-50 4.46318e-50 2.71289e-50 1.61986e-50 9.50202e-51 5.47629e-51 3.10122e-51 1.72585e-51 9.4395e-52 5.07487e-52 2.68218e-52 1.39379e-52 7.12225e-53 3.57937e-53 1.76942e-53 8.60507e-54 4.11761e-54 1.93896e-54 8.98649e-55 4.09996e-55 1.84163e-55 8.14566e-56 3.54828e-56 1.52246e-56 6.43539e-57 2.68023e-57 1.10002e-57 4.44969e-58 1.77427e-58 6.97464e-59 2.70279e-59 1.03107e-59 3.82779e-60 1.25669e-60 0 
0 3.44568e-84 1.5988e-83 7.01917e-83 3.04677e-82 1.31024e-81 5.58254e-81 2.35643e-80 9.85338e-80 4.08124e-79 1.67432e-78 6.80289e-78 2.73729e-77 1.09064e-76 4.30276e-76 1.68064e-75 6.49876e-75 2.48757e-74 9.42477e-74 3.5341e-73 1.31147e-72 4.81585e-72 1.74976e-71 6.28978e-71 2.23666e-70 7.86738e-70 2.73705e-69 9.41702e-69 3.20389e-68 1.07778e-67 3.58445e-67 1.17844e-66 3.8295e-66 1.22991e-65 3.90348e-65 1.22413e-64 3.79272e-64 1.16083e-63 3.50937e-63 1.0478e-62 3.08929e-62 8.99329e-62 2.58464e-61 7.33242e-61 2.05306e-60 5.67286e-60 1.54665e-59 4.16014e-59 1.1038e-58 2.88851e-58 7.45415e-58 1.89669e-57 4.7578e-57 1.17641e-56 2.86674e-56 6.88377e-56 1.62856e-55 3.79538e-55 8.71177e-55 1.96919e-54 4.38258e-54 9.60195e-54 2.07064e-53 4.39434e-53 9.17598e-53 1.88499e-52 3.80882e-52 7.56873e-52 1.47889e-51 2.84088e-51 5.36423e-51 9.95464e-51 1.81526e-50 3.25221e-50 5.7237e-50 9.89395e-50 1.67955e-49 2.79956e-49 4.5814e-49 7.35982e-49 1.1605e-48 1.79592e-48 2.72742e-48 4.06448e-48 5.94315e-48 8.5264e-48 1.20016e-47 1.65741e-47 2.24568e-47 2.98542e-47 3.89437e-47 4.98524e-47 6.26346e-47 7.72512e-47 9.35537e-47 1.11279e-46 1.30052e-46 1.49407e-46 1.68811e-46 1.87708e-46 2.05563e-46 2.21903e-46 2.36361e-46 2.48704e-46 2.58847e-46 2.66857e-46 2.72931e-46 2.77368e-46 2.80536e-46 2.82827e-46 2.84617e-46 2.86238e-46 2.87948e-46 2.89927e-46 2.92266e-46 2.94985e-46 2.98039e-46 3.01347e-46 3.04802e-46 3.08301e-46 3.11748e-46 3.15074e-46 3.18238e-46 3.21227e-46 3.24052e-46 3.2674e-46 3.29328e-46 3.31849e-46 3.34324e-46 3.36757e-46 3.39126e-46 3.4138e-46 3.43444e-46 3.45222e-46 3.46602e-46 3.47472e-46 3.47729e-46 3.4729e-46 3.46106e-46 3.44168e-46 3.41508e-46 3.38198e-46 3.34344e-46 3.30073e-46 3.25521e-46 3.20813e-46 3.16057e-46 3.11327e-46 3.06663e-46 3.02067e-46 2.97509e-46 2.92945e-46 2.88324e-46 2.8361e-46 2.78795e-46 2.73913e-46 2.69045e-46 2.6432e-46 2.59904e-46 2.55989e-46 2.52764e-46 2.50402e-46 2.49028e-46 2.48708e-46 2.49431e-46 2.51111e-46 2.5359e-46 2.56658e-46 2.60069e-46 2.63571e-46 2.66931e-46 2.69955e-46 2.72512e-46 2.74533e-46 2.76021e-46 2.77036e-46 2.77682e-46 2.78089e-46 2.78389e-46 2.78695e-46 2.7908e-46 2.79566e-46 2.80113e-46 2.80619e-46 2.80924e-46 2.80821e-46 2.80072e-46 2.78423e-46 2.75631e-46 2.71476e-46 2.65783e-46 2.58438e-46 2.4939e-46 2.38666e-46 2.26362e-46 2.12645e-46 1.97741e-46 1.81922e-46 1.65498e-46 1.48796e-46 1.32146e-46 1.15866e-46 1.0025e-46 8.55491e-47 7.19685e-47 5.96569e-47 4.87055e-47 3.91482e-47 3.09667e-47 2.40975e-47 1.84419e-47 1.38762e-47 1.02627e-47 7.45915e-48 5.3269e-48 3.73728e-48 2.57565e-48 1.74353e-48 1.15922e-48 7.56969e-49 4.85475e-49 3.05801e-49 1.89194e-49 1.14974e-49 6.86339e-50 4.02497e-50 2.31906e-50 1.3129e-50 7.3041e-51 3.99368e-51 2.14638e-51 1.13402e-51 5.89087e-52 3.00914e-52 1.51173e-52 7.47032e-53 3.63163e-53 1.73712e-53 8.17691e-54 3.78833e-54 1.72772e-54 7.75767e-55 3.42998e-55 1.49355e-55 6.40599e-56 2.70679e-56 1.12692e-56 4.62343e-57 1.86955e-57 7.45199e-58 2.92835e-58 1.13439e-58 4.32607e-59 1.60553e-59 5.26971e-60 0 