# vtk DataFile Version 3.0
Gray-Scott Simulation Output
ASCII
DATASET STRUCTURED_POINTS
DIMENSIONS 256 256 1
SPACING 1.0 1.0 1.0
ORIGIN 0 0 0
POINT_DATA 65536
SCALARS u double
LOOKUP_TABLE default
0 0 0 0 0 0 0 0 0 0 0 0 0 0 0 0 0 0 0 0 0 0 0 0 0 0 0 0 0 0 0 0 0 0 0 0 0 0 0 0 0 0 0 0 0 0 0 0 0 0 0 0 0 0 0 0 0 0 0 0 0 0 0 0 0 0 0 0 0 0 0 0 0 0 0 0 0 0 0 0 0 0 0 0 0 0 0 0 0 0 0 0 0 0 0 0 0 0 0 0 0 0 0 0 0 0 0 0 0 0 0 0 0 0 0 0 0 0 0 0 0 0 0 0 0 0 0 0 0 0 0 0 0 0 0 0 0 0 0 0 0 0 0 0 0 0 0 0 0 0 0 0 0 0 0 0 0 0 0 0 0 0 0 0 0 0 0 0 0 0 0 0 0 0 0 0 0 0 0 0 0 0 0 0 0 0 0 0 0 0 0 0 0 0 0 0 0 0 0 0 0 0 0 0 0 0 0 0 0 0 0 0 0 0 0 0 0 0 0 0 0 0 0 0 0 0 0 0 0 0 0 0 0 0 0 0 0 0 0 0 0 0 0 0 0 0 0 0 0 0 0 0 0 0 0 0 
0 1.36429e-79 5.14846e-79 1.79471e-78 6.17011e-78 2.10239e-77 7.10237e-77 2.37876e-76 7.89818e-76 2.59961e-75 8.48134e-75 2.74265e-74 8.79014e-74 2.79199e-73 8.78807e-73 2.74099e-72 8.47083e-72 2.59369e-71 7.86781e-71 2.3643e-70 7.03772e-70 2.07497e-69 6.05911e-69 1.75223e-68 5.01794e-68 1.42292e-67 3.99502e-67 1.11047e-66 3.05573e-66 8.32342e-66 2.24406e-65 5.98793e-65 1.58122e-64 4.13184e-64 1.0683e-63 2.73277e-63 6.91569e-63 1.73122e-62 4.28658e-62 1.04972e-61 2.54216e-61 6.08772e-61 1.44141e-60 3.37412e-60 7.80787e-60 1.78591e-59 4.03738e-59 9.02004e-59 1.99133e-58 4.34369e-58 9.36076e-58 1.99276e-57 4.1903e-57 8.70234e-57 1.78477e-56 3.61441e-56 7.22694e-56 1.42655e-55 2.77966e-55 5.34585e-55 1.01466e-54 1.90043e-54 3.5121e-54 6.40352e-54 1.15176e-53 2.04339e-53 3.57553e-53 6.17001e-53 1.04989e-52 1.76145e-52 2.91355e-52 4.75075e-52 7.6357e-52 1.20961e-51 1.88848e-51 2.90548e-51 4.40483e-51 6.57986e-51 9.68396e-51 1.40415e-50 2.00577e-50 2.8225e-50 3.91258e-50 5.34268e-50 7.18655e-50 9.52247e-50 1.24296e-49 1.59831e-49 2.02481e-49 2.52735e-49 3.10847e-49 3.76779e-49 4.50149e-49 5.302e-49 6.158e-49 7.05468e-49 7.97436e-49 8.89736e-49 9.80318e-49 1.06718e-48 1.14848e-48 1.22269e-48 1.28866e-48 1.3457e-48 1.39362e-48 1.43266e-48 1.46351e-48 1.48717e-48 1.50487e-48 1.51796e-48 1.5278e-48 1.53564e-48 1.54256e-48 1.54943e-48 1.55687e-48 1.56527e-48 1.5748e-48 1.58545e-48 1.59709e-48 1.60949e-48 1.62242e-48 1.63563e-48 1.64889e-48 1.66204e-48 1.67493e-48 1.68749e-48 1.69962e-48 1.71128e-48 1.72236e-48 1.73276e-48 1.74233e-48 1.75086e-48 1.75811e-48 1.76382e-48 1.76771e-48 1.76952e-48 1.76901e-48 1.76602e-48 1.76046e-48 1.75233e-48 1.74172e-48 1.72882e-48 1.71387e-48 1.69719e-48 1.67908e-48 1.65988e-48 1.63986e-48 1.61927e-48 1.5983e-48 1.57709e-48 1.55572e-48 1.53429e-48 1.51288e-48 1.49161e-48 1.47067e-48 1.45031e-48 1.43086e-48 1.41273e-48 1.39636e-48 1.38221e-48 1.37072e-48 1.36222e-48 1.35695e-48 1.355e-48 1.35627e-48 1.36051e-48 1.3673e-48 1.37612e-48 1.38634e-48 1.39734e-48 1.4085e-48 1.41929e-48 1.4293e-48 1.43824e-48 1.44598e-48 1.45249e-48 1.45788e-48 1.46227e-48 1.46583e-48 1.46867e-48 1.47084e-48 1.47224e-48 1.47266e-48 1.47171e-48 1.46889e-48 1.46356e-48 1.455e-48 1.44245e-48 1.42516e-48 1.40246e-48 1.37377e-48 1.33867e-48 1.29693e-48 1.24855e-48 1.19374e-48 1.13293e-48 1.06681e-48 9.96207e-49 9.22156e-49 8.45793e-49 7.6833e-49 6.91007e-49 6.15036e-49 5.4155e-49 4.71566e-49 4.05941e-49 3.4535e-49 2.90268e-49 2.40967e-49 1.97523e-49 1.59835e-49 1.27652e-49 1.00599e-49 7.82155e-50 5.99867e-50 4.53754e-50 3.38483e-50 2.48979e-50 1.80576e-50 1.29122e-50 9.10261e-51 6.32615e-51 4.33424e-51 2.92741e-51 1.94918e-51 1.27946e-51 8.27977e-52 5.28251e-52 3.32287e-52 2.0609e-52 1.26037e-52 7.60081e-53 4.52039e-53 2.65141e-53 1.53389e-53 8.75317e-54 4.92749e-54 2.73661e-54 1.49957e-54 8.10819e-55 4.32641e-55 2.27834e-55 1.18424e-55 6.07618e-56 3.07776e-56 1.5392e-56 7.60074e-57 3.70645e-57 1.78501e-57 8.49061e-58 3.9887e-58 1.84944e-58 8.43228e-59 3.70489e-59 1.39002e-59 0 
0 5.14086e-79 1.94031e-78 6.76494e-78 2.32618e-77 7.92768e-77 2.67868e-76 8.97334e-76 2.98003e-75 9.81053e-75 3.20143e-74 1.03549e-73 3.31948e-73 1.0546e-72 3.32026e-72 1.03584e-71 3.20198e-71 9.80667e-71 2.97557e-70 8.94407e-70 2.66308e-69 7.85388e-69 2.29406e-68 6.63612e-68 1.90098e-67 5.39218e-67 1.51439e-66 4.2108e-66 1.15907e-65 3.15821e-65 8.51762e-65 2.27357e-64 6.00585e-64 1.56992e-63 4.06054e-63 1.03909e-62 2.63055e-62 6.58758e-62 1.63174e-61 3.99746e-61 9.68463e-61 2.3201e-60 5.49561e-60 1.28697e-59 2.97933e-59 6.81753e-59 1.54188e-58 3.44623e-58 7.61143e-58 1.661e-57 3.58106e-57 7.62688e-57 1.60446e-56 3.33359e-56 6.83993e-56 1.3858e-55 2.77211e-55 5.47442e-55 1.06717e-54 2.0533e-54 3.89894e-54 7.30583e-54 1.35074e-53 2.46384e-53 4.43343e-53 7.86883e-53 1.37745e-52 2.37792e-52 4.04785e-52 6.79387e-52 1.12417e-51 1.83369e-51 2.94824e-51 4.67197e-51 7.29632e-51 1.12289e-50 1.70282e-50 2.5443e-50 3.74548e-50 5.43201e-50 7.76084e-50 1.09228e-49 1.51434e-49 2.06807e-49 2.78203e-49 3.6865e-49 4.81206e-49 6.18771e-49 7.83856e-49 9.78327e-49 1.20315e-48 1.45813e-48 1.74177e-48 2.05108e-48 2.38164e-48 2.72767e-48 3.0823e-48 3.43789e-48 3.78647e-48 4.1203e-48 4.43229e-48 4.71654e-48 4.96867e-48 5.18608e-48 5.36803e-48 5.51562e-48 5.63153e-48 5.71972e-48 5.78501e-48 5.83266e-48 5.86792e-48 5.89567e-48 5.9201e-48 5.94456e-48 5.97144e-48 6.00222e-48 6.03752e-48 6.0773e-48 6.12101e-48 6.16782e-48 6.21673e-48 6.26679e-48 6.31715e-48 6.36711e-48 6.41617e-48 6.46396e-48 6.51018e-48 6.55457e-48 6.59681e-48 6.63647e-48 6.67296e-48 6.70551e-48 6.7332e-48 6.75502e-48 6.7699e-48 6.77683e-48 6.77493e-48 6.76355e-48 6.74237e-48 6.71138e-48 6.67094e-48 6.62175e-48 6.56476e-48 6.50114e-48 6.43211e-48 6.35889e-48 6.28258e-48 6.20411e-48 6.12419e-48 6.04334e-48 5.96193e-48 5.88025e-48 5.79864e-48 5.71755e-48 5.63769e-48 5.56002e-48 5.48582e-48 5.41663e-48 5.35416e-48 5.30017e-48 5.25628e-48 5.22385e-48 5.20377e-48 5.19635e-48 5.20125e-48 5.21749e-48 5.2435e-48 5.27723e-48 5.31633e-48 5.35837e-48 5.40102e-48 5.44225e-48 5.48045e-48 5.51457e-48 5.54407e-48 5.56891e-48 5.58943e-48 5.6062e-48 5.61981e-48 5.63074e-48 5.63913e-48 5.64467e-48 5.64651e-48 5.64324e-48 5.63287e-48 5.61299e-48 5.58085e-48 5.53354e-48 5.46818e-48 5.38215e-48 5.27323e-48 5.13979e-48 4.98093e-48 4.79656e-48 4.58748e-48 4.35534e-48 4.10264e-48 3.83261e-48 3.54914e-48 3.25656e-48 2.95953e-48 2.66279e-48 2.37101e-48 2.08856e-48 1.81938e-48 1.56678e-48 1.3334e-48 1.12111e-48 9.30988e-49 7.63362e-49 6.17876e-49 4.93581e-49 3.89057e-49 3.02544e-49 2.32067e-49 1.75561e-49 1.30972e-49 9.63446e-50 6.98771e-50 4.9966e-50 3.52229e-50 2.44778e-50 1.6769e-50 1.13248e-50 7.53947e-51 4.9482e-51 3.20155e-51 2.0422e-51 1.28433e-51 7.96376e-52 4.86911e-52 2.93561e-52 1.74539e-52 1.02345e-52 5.91906e-53 3.37666e-53 1.90024e-53 1.055e-53 5.77905e-54 3.12366e-54 1.66616e-54 8.77106e-55 4.55738e-55 2.33748e-55 1.18357e-55 5.91688e-56 2.92073e-56 1.42374e-56 6.85415e-57 3.25904e-57 1.53045e-57 7.09363e-58 3.2331e-58 1.42006e-58 5.32655e-59 0 
0 1.78898e-78 6.75333e-78 2.35506e-77 8.0998e-77 2.76105e-76 9.33144e-76 3.12668e-75 1.03861e-74 3.42006e-74 1.11634e-73 3.61168e-73 1.15811e-72 3.68033e-72 1.15902e-71 3.61689e-71 1.11838e-70 3.42627e-70 1.03993e-69 3.12683e-69 9.31305e-69 2.74748e-68 8.02789e-68 2.32305e-67 6.65693e-67 1.88892e-66 5.30695e-66 1.47616e-65 4.06483e-65 1.108e-64 2.98943e-64 7.98273e-64 2.10957e-63 5.51667e-63 1.42747e-62 3.65443e-62 9.25555e-62 2.31885e-61 5.74637e-61 1.40839e-60 3.41368e-60 8.18182e-60 1.93894e-59 4.5428e-59 1.05217e-58 2.40883e-58 5.45062e-58 1.21887e-57 2.69338e-57 5.88061e-57 1.26849e-56 2.703e-56 5.68922e-56 1.18267e-55 2.42789e-55 4.92157e-55 9.85014e-55 1.94624e-54 3.79595e-54 7.30743e-54 1.3883e-53 2.60273e-53 4.81454e-53 8.78643e-53 1.58182e-52 2.80892e-52 4.91945e-52 8.49653e-52 1.447e-51 2.42973e-51 4.02218e-51 6.56356e-51 1.05573e-50 1.67362e-50 2.61469e-50 4.02537e-50 6.10631e-50 9.1266e-50 1.3439e-49 1.94954e-49 2.78597e-49 3.92179e-49 5.43806e-49 7.42753e-49 9.9927e-49 1.32422e-48 1.72858e-48 2.22271e-48 2.81558e-48 3.51381e-48 4.32073e-48 5.23556e-48 6.25267e-48 7.36121e-48 8.5451e-48 9.78343e-48 1.10513e-47 1.23212e-47 1.35645e-47 1.47533e-47 1.58624e-47 1.68706e-47 1.77624e-47 1.85288e-47 1.91674e-47 1.96826e-47 2.00841e-47 2.03865e-47 2.06074e-47 2.07658e-47 2.08806e-47 2.09693e-47 2.10472e-47 2.11261e-47 2.12145e-47 2.13178e-47 2.14379e-47 2.15748e-47 2.17262e-47 2.18893e-47 2.20602e-47 2.22357e-47 2.24124e-47 2.25881e-47 2.27607e-47 2.29289e-47 2.30917e-47 2.32482e-47 2.33972e-47 2.35371e-47 2.36659e-47 2.37808e-47 2.38787e-47 2.39559e-47 2.40086e-47 2.40332e-47 2.40266e-47 2.39866e-47 2.3912e-47 2.38027e-47 2.366e-47 2.34865e-47 2.32854e-47 2.30609e-47 2.28174e-47 2.25591e-47 2.22899e-47 2.20131e-47 2.17313e-47 2.14462e-47 2.11592e-47 2.08711e-47 2.05833e-47 2.02972e-47 2.00154e-47 1.97413e-47 1.94793e-47 1.92349e-47 1.90143e-47 1.88235e-47 1.86685e-47 1.85539e-47 1.84831e-47 1.8457e-47 1.84745e-47 1.85322e-47 1.86243e-47 1.87438e-47 1.88823e-47 1.9031e-47 1.91819e-47 1.93277e-47 1.94627e-47 1.95832e-47 1.96873e-47 1.97749e-47 1.98473e-47 1.99065e-47 1.99547e-47 1.99936e-47 2.00238e-47 2.00441e-47 2.00517e-47 2.00416e-47 2.00067e-47 1.99385e-47 1.98272e-47 1.96626e-47 1.94343e-47 1.91331e-47 1.87508e-47 1.82818e-47 1.77226e-47 1.70727e-47 1.63348e-47 1.55146e-47 1.46208e-47 1.36647e-47 1.266e-47 1.16219e-47 1.0567e-47 9.5122e-48 8.47399e-48 7.46808e-48 6.50856e-48 5.60743e-48 4.77421e-48 4.01571e-48 3.33595e-48 2.73624e-48 2.21543e-48 1.77025e-48 1.39571e-48 1.08557e-48 8.32827e-49 6.30124e-49 4.70133e-49 3.45855e-49 2.50849e-49 1.79369e-49 1.26439e-49 8.7861e-50 6.01849e-50 4.06398e-50 2.70516e-50 1.77509e-50 1.14826e-50 7.3228e-51 4.6041e-51 2.85409e-51 1.7445e-51 1.05144e-51 6.24938e-52 3.66321e-52 2.11784e-52 1.20773e-52 6.79397e-53 3.77049e-53 2.06457e-53 1.11548e-53 5.94749e-54 3.12959e-54 1.62543e-54 8.33325e-55 4.21766e-55 2.10758e-55 1.0399e-55 5.06692e-56 2.43824e-56 1.15884e-56 5.43956e-57 2.52014e-57 1.14814e-57 5.04098e-58 1.89028e-58 0 
0 6.13946e-78 2.31804e-77 8.08536e-77 2.78145e-76 9.48358e-76 3.2059e-75 1.07447e-74 3.57004e-74 1.17588e-73 3.8392e-73 1.24243e-72 3.98505e-72 1.26676e-71 3.9905e-71 1.24566e-70 3.8529e-70 1.18075e-69 3.58491e-69 1.07825e-68 3.21258e-68 9.48081e-68 2.77117e-67 8.02188e-67 2.29959e-66 6.52757e-66 1.83463e-65 5.1051e-65 1.40633e-64 3.83493e-64 1.0351e-63 2.76522e-63 7.31066e-63 1.91262e-62 4.95117e-62 1.26811e-61 3.21319e-61 8.05395e-61 1.9968e-60 4.89633e-60 1.18735e-59 2.84721e-59 6.75072e-59 1.58244e-58 3.667e-58 8.39955e-58 1.90161e-57 4.25461e-57 9.40656e-57 2.05489e-56 4.43492e-56 9.4554e-56 1.99124e-55 4.14163e-55 8.50699e-55 1.7254e-54 3.45516e-54 6.83064e-54 1.33298e-53 2.56747e-53 4.88047e-53 9.15468e-53 1.69434e-52 3.09379e-52 5.57267e-52 9.90083e-52 1.73488e-51 2.99786e-51 5.10801e-51 8.58114e-51 1.42118e-50 2.32017e-50 3.73352e-50 5.92111e-50 9.25413e-50 1.42522e-49 2.16274e-49 3.2335e-49 4.76278e-49 6.91096e-49 9.87839e-49 1.39086e-48 1.92894e-48 2.63499e-48 3.54538e-48 4.69862e-48 6.13354e-48 7.88679e-48 9.98993e-48 1.24661e-47 1.53268e-47 1.85687e-47 2.21711e-47 2.6095e-47 3.02825e-47 3.46587e-47 3.9135e-47 4.3613e-47 4.79912e-47 5.21706e-47 5.60619e-47 5.95908e-47 6.27032e-47 6.5368e-47 6.7578e-47 6.93494e-47 7.07186e-47 7.1738e-47 7.24707e-47 7.29847e-47 7.33478e-47 7.36222e-47 7.38616e-47 7.41083e-47 7.43921e-47 7.47312e-47 7.5133e-47 7.55962e-47 7.61132e-47 7.66728e-47 7.7262e-47 7.78682e-47 7.84803e-47 7.90893e-47 7.96884e-47 8.02728e-47 8.08388e-47 8.1383e-47 8.19013e-47 8.23885e-47 8.2837e-47 8.32376e-47 8.35789e-47 8.38483e-47 8.40324e-47 8.41189e-47 8.40967e-47 8.3958e-47 8.36984e-47 8.33181e-47 8.28215e-47 8.22171e-47 8.1517e-47 8.07353e-47 7.98874e-47 7.89882e-47 7.80514e-47 7.70883e-47 7.61077e-47 7.51158e-47 7.41169e-47 7.31147e-47 7.21129e-47 7.11172e-47 7.01358e-47 6.91809e-47 6.82682e-47 6.74165e-47 6.66473e-47 6.59823e-47 6.54418e-47 6.50426e-47 6.47958e-47 6.47053e-47 6.47672e-47 6.49692e-47 6.52917e-47 6.57094e-47 6.61932e-47 6.67129e-47 6.72395e-47 6.77481e-47 6.82189e-47 6.86388e-47 6.90014e-47 6.93065e-47 6.95585e-47 6.97648e-47 6.99332e-47 7.00699e-47 7.0177e-47 7.02509e-47 7.02815e-47 7.02513e-47 7.01361e-47 6.9906e-47 6.95267e-47 6.89622e-47 6.81765e-47 6.71365e-47 6.58139e-47 6.41879e-47 6.22461e-47 5.99865e-47 5.74175e-47 5.45584e-47 5.1439e-47 4.80985e-47 4.45842e-47 4.09495e-47 3.72519e-47 3.35506e-47 2.99041e-47 2.63676e-47 2.29911e-47 1.98172e-47 1.68801e-47 1.42043e-47 1.18044e-47 9.68582e-48 7.84481e-48 6.27023e-48 4.94484e-48 3.84687e-48 2.95176e-48 2.23363e-48 1.66666e-48 1.22616e-48 8.89359e-49 6.35928e-49 4.4825e-49 3.1146e-49 2.13327e-49 1.44029e-49 9.58553e-50 6.28864e-50 4.06707e-50 2.59304e-50 1.6299e-50 1.01008e-50 6.17199e-51 3.71873e-51 2.20952e-51 1.29469e-51 7.48228e-52 4.2652e-52 2.3984e-52 1.33051e-52 7.28228e-53 3.9329e-53 2.09603e-53 1.10245e-53 5.72328e-54 2.9329e-54 1.48374e-54 7.41091e-55 3.65496e-55 1.78006e-55 8.56183e-56 4.06737e-56 1.90834e-56 8.83734e-57 4.02437e-57 1.76622e-57 6.62101e-58 0 
0 2.08814e-77 7.88559e-77 2.75112e-76 9.46633e-76 3.2284e-75 1.09162e-74 3.65952e-74 1.21624e-73 4.00706e-73 1.30864e-72 4.23618e-72 1.35912e-71 4.32163e-71 1.36179e-70 4.25225e-70 1.31566e-69 4.03321e-69 1.22494e-68 3.68557e-68 1.09847e-67 3.24289e-67 9.48217e-67 2.74587e-66 7.87439e-66 2.23607e-65 6.28712e-65 1.75017e-64 4.82325e-64 1.31581e-63 3.55306e-63 9.49587e-63 2.51161e-62 6.57383e-62 1.70253e-61 4.3626e-61 1.10593e-60 2.77338e-60 6.87929e-60 1.6877e-59 4.09469e-59 9.82383e-59 2.33042e-58 5.46559e-58 1.26721e-57 2.90419e-57 6.57843e-57 1.47264e-56 3.25767e-56 7.12039e-56 1.5376e-55 3.28006e-55 6.91147e-55 1.43835e-54 2.95607e-54 5.99898e-54 1.202e-53 2.37763e-53 4.64252e-53 8.94712e-53 1.70171e-52 3.19382e-52 5.91441e-52 1.08054e-51 1.94738e-51 3.46172e-51 6.06904e-51 1.04927e-50 1.78874e-50 3.00647e-50 4.9816e-50 8.13657e-50 1.30989e-49 2.07828e-49 3.24947e-49 5.0064e-49 7.59985e-49 1.13663e-48 1.67471e-48 2.43075e-48 3.47532e-48 4.89426e-48 6.78891e-48 9.27523e-48 1.24812e-47 1.65422e-47 2.15947e-47 2.77672e-47 3.51699e-47 4.38832e-47 5.39459e-47 6.53441e-47 7.80032e-47 9.17829e-47 1.06477e-46 1.2182e-46 1.37497e-46 1.5316e-46 1.68452e-46 1.83024e-46 1.96562e-46 2.08809e-46 2.19576e-46 2.28757e-46 2.36332e-46 2.42363e-46 2.4698e-46 2.50372e-46 2.52765e-46 2.54401e-46 2.55517e-46 2.56336e-46 2.57045e-46 2.57793e-46 2.58683e-46 2.59779e-46 2.61105e-46 2.62655e-46 2.64401e-46 2.66303e-46 2.68315e-46 2.70391e-46 2.72492e-46 2.74585e-46 2.76646e-46 2.78658e-46 2.80609e-46 2.82485e-46 2.84273e-46 2.85954e-46 2.87504e-46 2.88888e-46 2.90068e-46 2.91e-46 2.91638e-46 2.91939e-46 2.91865e-46 2.91388e-46 2.90493e-46 2.89181e-46 2.87467e-46 2.85381e-46 2.82964e-46 2.80265e-46 2.77339e-46 2.74235e-46 2.71002e-46 2.67679e-46 2.64296e-46 2.60875e-46 2.57429e-46 2.53972e-46 2.50515e-46 2.47078e-46 2.43691e-46 2.40393e-46 2.3724e-46 2.34297e-46 2.31639e-46 2.2934e-46 2.27472e-46 2.26092e-46 2.2524e-46 2.24929e-46 2.25146e-46 2.25847e-46 2.26966e-46 2.28414e-46 2.30091e-46 2.3189e-46 2.33713e-46 2.35473e-46 2.37101e-46 2.38551e-46 2.39803e-46 2.40856e-46 2.41726e-46 2.42439e-46 2.43022e-46 2.43499e-46 2.43876e-46 2.44142e-46 2.44263e-46 2.44178e-46 2.43804e-46 2.43036e-46 2.41757e-46 2.39841e-46 2.37163e-46 2.33606e-46 2.29072e-46 2.23486e-46 2.16805e-46 2.09018e-46 2.00152e-46 1.90273e-46 1.79481e-46 1.6791e-46 1.55723e-46 1.43104e-46 1.30253e-46 1.17374e-46 1.04673e-46 9.23432e-47 8.05593e-47 6.94724e-47 5.92035e-47 4.98403e-47 4.14366e-47 3.40123e-47 2.75568e-47 2.20323e-47 1.73796e-47 1.35236e-47 1.03787e-47 7.85476e-48 5.86156e-48 4.31261e-48 3.12809e-48 2.23668e-48 1.5765e-48 1.09532e-48 7.50122e-49 5.06373e-49 3.36946e-49 2.2101e-49 1.42901e-49 9.10859e-50 5.72373e-50 3.54604e-50 2.16606e-50 1.30464e-50 7.74886e-51 4.53882e-51 2.62206e-51 1.49408e-51 8.39796e-52 4.65676e-52 2.54768e-52 1.3753e-52 7.32633e-53 3.85169e-53 1.99865e-53 1.02373e-53 5.17657e-54 2.58435e-54 1.27396e-54 6.20157e-55 2.98145e-55 1.41569e-55 6.63907e-56 3.07304e-56 1.39877e-56 6.13639e-57 2.29962e-57 0 
0 7.04117e-77 2.65952e-76 9.28064e-76 3.19414e-75 1.0896e-74 3.68522e-74 1.23574e-73 4.10806e-73 1.35383e-72 4.42262e-72 1.43205e-71 4.59591e-71 1.46181e-70 4.60774e-70 1.43924e-69 4.45448e-69 1.366e-68 4.15014e-68 1.24912e-67 3.72425e-67 1.09987e-66 3.21719e-66 9.31995e-66 2.67374e-65 7.59554e-65 2.13648e-64 5.94987e-64 1.64039e-63 4.47698e-63 1.20944e-62 3.23377e-62 8.55704e-62 2.24073e-61 5.8059e-61 1.48842e-60 3.77503e-60 9.47137e-60 2.35052e-59 5.76947e-59 1.40051e-58 3.3618e-58 7.97911e-58 1.87236e-57 4.34347e-57 9.95982e-57 2.25731e-56 5.05603e-56 1.11909e-55 2.44742e-55 5.28809e-55 1.12872e-54 2.37974e-54 4.95538e-54 1.01902e-53 2.0692e-53 4.14843e-53 8.21074e-53 1.60416e-52 3.09338e-52 5.88693e-52 1.10552e-51 2.04843e-51 3.74454e-51 6.75233e-51 1.20099e-50 2.10671e-50 3.64423e-50 6.21578e-50 1.04527e-49 1.73283e-49 2.83165e-49 4.56071e-49 7.23929e-49 1.13237e-48 1.74532e-48 2.65045e-48 3.96539e-48 5.84449e-48 8.4854e-48 1.2135e-47 1.70935e-47 2.37152e-47 3.24054e-47 4.36112e-47 5.78054e-47 7.54634e-47 9.70324e-47 1.22894e-46 1.53326e-46 1.88457e-46 2.28232e-46 2.72382e-46 3.20408e-46 3.71579e-46 4.24959e-46 4.79439e-46 5.33802e-46 5.86791e-46 6.37193e-46 6.83916e-46 7.26064e-46 7.62995e-46 7.9435e-46 8.20075e-46 8.40398e-46 8.55796e-46 8.6694e-46 8.74627e-46 8.79711e-46 8.83032e-46 8.85362e-46 8.87359e-46 8.89537e-46 8.92258e-46 8.95735e-46 9.00049e-46 9.05177e-46 9.11017e-46 9.17422e-46 9.24228e-46 9.31274e-46 9.3842e-46 9.45552e-46 9.52585e-46 9.59457e-46 9.66121e-46 9.72537e-46 9.78654e-46 9.8441e-46 9.89716e-46 9.9446e-46 9.98508e-46 1.00171e-45 1.0039e-45 1.00494e-45 1.00469e-45 1.00307e-45 1.00001e-45 9.95519e-46 9.89652e-46 9.8251e-46 9.74234e-46 9.64995e-46 9.54975e-46 9.44353e-46 9.33289e-46 9.21919e-46 9.10344e-46 8.98639e-46 8.86851e-46 8.75022e-46 8.63194e-46 8.51431e-46 8.39832e-46 8.28538e-46 8.17735e-46 8.0765e-46 7.98537e-46 7.90656e-46 7.84251e-46 7.79523e-46 7.76605e-46 7.75546e-46 7.76299e-46 7.78716e-46 7.82566e-46 7.87545e-46 7.93306e-46 7.99488e-46 8.05748e-46 8.11785e-46 8.17367e-46 8.22338e-46 8.26625e-46 8.30228e-46 8.33206e-46 8.35648e-46 8.37655e-46 8.39302e-46 8.40621e-46 8.41574e-46 8.42041e-46 8.4182e-46 8.40623e-46 8.38095e-46 8.33827e-46 8.27386e-46 8.1834e-46 8.06287e-46 7.90883e-46 7.71866e-46 7.49077e-46 7.22473e-46 6.92141e-46 6.58294e-46 6.21271e-46 5.81526e-46 5.39612e-46 4.96162e-46 4.51858e-46 4.07412e-46 3.6353e-46 3.20883e-46 2.80083e-46 2.4166e-46 2.0604e-46 1.73533e-46 1.44334e-46 1.18519e-46 9.60573e-47 7.68237e-47 6.06166e-47 4.71781e-47 3.62136e-47 2.7411e-47 2.04573e-47 1.50523e-47 1.09182e-47 7.80669e-48 5.50218e-48 3.82244e-48 2.61745e-48 1.76665e-48 1.17533e-48 7.70754e-49 4.98235e-49 3.17492e-49 1.9945e-49 1.23527e-49 7.54296e-50 4.54159e-50 2.69645e-50 1.5788e-50 9.11696e-51 5.19277e-51 2.91751e-51 1.61708e-51 8.84296e-52 4.77146e-52 2.5406e-52 1.33504e-52 6.92426e-53 3.54497e-53 1.79168e-53 8.94039e-54 4.40503e-54 2.14329e-54 1.0299e-54 4.88791e-55 2.29113e-55 1.05999e-55 4.82254e-56 2.11473e-56 7.92239e-57 0 
0 2.35381e-76 8.89236e-76 3.1038e-75 1.06851e-74 3.64586e-74 1.23341e-73 4.13703e-73 1.37568e-72 4.53487e-72 1.48186e-71 4.79969e-71 1.54084e-70 4.90244e-70 1.54578e-69 4.82984e-69 1.49535e-68 4.58715e-68 1.39414e-67 4.19759e-67 1.25197e-66 3.69879e-66 1.08233e-65 3.13665e-65 9.00208e-65 2.55834e-64 7.19912e-64 2.00572e-63 5.5322e-63 1.51052e-62 4.08244e-62 1.09205e-61 2.89107e-61 7.57408e-61 1.96345e-60 5.03602e-60 1.2779e-59 3.20783e-59 7.965e-59 1.95607e-58 4.75076e-58 1.14099e-57 2.70958e-57 6.36177e-57 1.47662e-56 3.38788e-56 7.68272e-56 1.72181e-55 3.81323e-55 8.34437e-55 1.80402e-54 3.85292e-54 8.12817e-54 1.69357e-53 3.48477e-53 7.08039e-53 1.42038e-52 2.81299e-52 5.49919e-52 1.06108e-51 2.02054e-51 3.79672e-51 7.03918e-51 1.28753e-50 2.3231e-50 4.13433e-50 7.25637e-50 1.25592e-49 2.14334e-49 3.60624e-49 5.98148e-49 9.77935e-49 1.57585e-48 2.50253e-48 3.9162e-48 6.03854e-48 9.17373e-48 1.373e-47 2.02431e-47 2.93992e-47 4.20554e-47 5.92535e-47 8.22237e-47 1.12372e-46 1.51249e-46 2.00492e-46 2.61746e-46 3.36555e-46 4.26234e-46 5.31725e-46 6.53458e-46 7.91216e-46 9.44034e-46 1.11015e-45 1.287e-45 1.47129e-45 1.65916e-45 1.84637e-45 2.02855e-45 2.20149e-45 2.36142e-45 2.50528e-45 2.63086e-45 2.73699e-45 2.82353e-45 2.89132e-45 2.94208e-45 2.97818e-45 3.00242e-45 3.01779e-45 3.02722e-45 3.03341e-45 3.03862e-45 3.04462e-45 3.05267e-45 3.06348e-45 3.07732e-45 3.09408e-45 3.1134e-45 3.13476e-45 3.15757e-45 3.18128e-45 3.20538e-45 3.22948e-45 3.25326e-45 3.27653e-45 3.29911e-45 3.32087e-45 3.34162e-45 3.36116e-45 3.37919e-45 3.39531e-45 3.40908e-45 3.41997e-45 3.42745e-45 3.43101e-45 3.4302e-45 3.4247e-45 3.41433e-45 3.3991e-45 3.37919e-45 3.35493e-45 3.32683e-45 3.29546e-45 3.26144e-45 3.22539e-45 3.18784e-45 3.14925e-45 3.10998e-45 3.07027e-45 3.03028e-45 2.99014e-45 2.95e-45 2.91007e-45 2.87069e-45 2.83233e-45 2.79562e-45 2.76134e-45 2.73036e-45 2.70357e-45 2.68179e-45 2.66572e-45 2.65581e-45 2.65223e-45 2.65483e-45 2.66309e-45 2.67623e-45 2.69321e-45 2.71285e-45 2.73391e-45 2.75522e-45 2.77577e-45 2.79475e-45 2.81164e-45 2.8262e-45 2.83843e-45 2.84854e-45 2.85684e-45 2.86369e-45 2.86934e-45 2.87392e-45 2.87729e-45 2.87908e-45 2.87858e-45 2.87482e-45 2.86659e-45 2.85251e-45 2.83107e-45 2.80082e-45 2.76036e-45 2.7085e-45 2.64433e-45 2.56728e-45 2.47719e-45 2.3743e-45 2.25933e-45 2.13339e-45 1.99801e-45 1.85506e-45 1.70668e-45 1.5552e-45 1.40306e-45 1.25266e-45 1.10634e-45 9.66204e-46 8.34098e-46 7.11509e-46 5.99538e-46 4.98875e-46 4.09813e-46 3.32264e-46 2.65819e-46 2.09799e-46 1.63325e-46 1.25391e-46 9.49251e-47 7.08516e-47 5.21349e-47 3.78168e-47 2.70392e-47 1.90562e-47 1.32373e-47 9.06323e-48 6.11622e-48 4.06824e-48 2.66726e-48 1.72375e-48 1.09812e-48 6.89632e-49 4.26974e-49 2.60634e-49 1.56869e-49 9.31003e-50 5.44892e-50 3.14522e-50 1.79066e-50 1.00562e-50 5.57125e-51 3.0452e-51 1.64234e-51 8.74054e-52 4.59077e-52 2.37984e-52 1.21779e-52 6.15177e-53 3.06816e-53 1.51096e-53 7.34791e-54 3.52905e-54 1.67404e-54 7.84286e-55 3.62668e-55 1.6492e-55 7.22871e-56 2.70717e-56 0 
0 7.80032e-76 2.94746e-75 1.02903e-74 3.54342e-74 1.20937e-73 4.09244e-73 1.37304e-72 4.56701e-72 1.50593e-71 4.92238e-71 1.59483e-70 5.12145e-70 1.62999e-69 5.14116e-69 1.60691e-68 4.97679e-68 1.52722e-67 4.64323e-67 1.39854e-66 4.17284e-66 1.23328e-65 3.61021e-65 1.04667e-64 3.00514e-64 8.54401e-64 2.40529e-63 6.7042e-63 1.84998e-62 5.05348e-62 1.36642e-61 3.65688e-61 9.68576e-61 2.53873e-60 6.58446e-60 1.68969e-59 4.28984e-59 1.07741e-58 2.67661e-58 6.57682e-58 1.5982e-57 3.84054e-57 9.12547e-57 2.14377e-56 4.97872e-56 1.14296e-55 2.59343e-55 5.81573e-55 1.28876e-54 2.82188e-54 6.10453e-54 1.30457e-53 2.75386e-53 5.74148e-53 1.18214e-52 2.40339e-52 4.82442e-52 9.56056e-52 1.8702e-51 3.61088e-51 6.88027e-51 1.29365e-50 2.39994e-50 4.39243e-50 7.93012e-50 1.41214e-49 2.47998e-49 4.29482e-49 7.33364e-49 1.2346e-48 2.04887e-48 3.35152e-48 5.40336e-48 8.58498e-48 1.34408e-47 2.07339e-47 3.15118e-47 4.71807e-47 6.95862e-47 1.01093e-46 1.44654e-46 2.03859e-46 2.82946e-46 3.86757e-46 5.20628e-46 6.90191e-46 9.01093e-46 1.15862e-45 1.46727e-45 1.83022e-45 2.24887e-45 2.7224e-45 3.24736e-45 3.81758e-45 4.4241e-45 5.05549e-45 5.69835e-45 6.338e-45 6.95937e-45 7.548e-45 8.091e-45 8.57787e-45 9.00124e-45 9.3572e-45 9.64549e-45 9.86923e-45 1.00345e-44 1.01497e-44 1.02245e-44 1.02694e-44 1.02945e-44 1.0309e-44 1.03209e-44 1.03361e-44 1.03589e-44 1.03917e-44 1.04354e-44 1.04895e-44 1.05527e-44 1.06232e-44 1.0699e-44 1.0778e-44 1.08586e-44 1.09393e-44 1.10191e-44 1.10972e-44 1.11731e-44 1.12462e-44 1.1316e-44 1.13818e-44 1.14425e-44 1.14969e-44 1.15433e-44 1.15801e-44 1.16054e-44 1.16175e-44 1.16149e-44 1.15964e-44 1.15616e-44 1.15103e-44 1.14433e-44 1.13616e-44 1.1267e-44 1.11614e-44 1.10468e-44 1.09254e-44 1.07991e-44 1.06692e-44 1.05371e-44 1.04035e-44 1.02689e-44 1.01339e-44 9.99883e-45 9.86443e-45 9.73181e-45 9.60259e-45 9.47892e-45 9.36339e-45 9.25894e-45 9.16859e-45 9.09516e-45 9.04098e-45 9.00762e-45 8.99564e-45 9.00449e-45 9.03251e-45 9.07699e-45 9.13443e-45 9.20082e-45 9.27198e-45 9.34396e-45 9.4133e-45 9.47731e-45 9.53424e-45 9.58327e-45 9.62444e-45 9.65846e-45 9.68645e-45 9.70959e-45 9.72884e-45 9.7446e-45 9.7565e-45 9.76321e-45 9.76243e-45 9.75087e-45 9.72445e-45 9.67847e-45 9.60789e-45 9.50768e-45 9.37314e-45 9.20016e-45 8.9856e-45 8.72745e-45 8.42501e-45 8.07908e-45 7.69189e-45 7.26716e-45 6.80995e-45 6.3265e-45 5.824e-45 5.31035e-45 4.79377e-45 4.28252e-45 3.78452e-45 3.30706e-45 2.85647e-45 2.43793e-45 2.05527e-45 1.71097e-45 1.40609e-45 1.14044e-45 9.1268e-46 7.20539e-46 5.61062e-46 4.30831e-46 3.26203e-46 2.43501e-46 1.79187e-46 1.29978e-46 9.29329e-47 6.54914e-47 4.54888e-47 3.11406e-47 2.10113e-47 1.39729e-47 9.1589e-48 5.91747e-48 3.76865e-48 2.366e-48 1.46437e-48 8.93556e-49 5.37601e-49 3.18933e-49 1.86585e-49 1.07654e-49 6.12623e-50 3.43885e-50 1.90427e-50 1.04035e-50 5.60808e-51 2.98314e-51 1.56603e-51 8.11413e-52 4.14994e-52 2.09529e-52 1.04447e-52 5.14096e-53 2.49879e-53 1.19949e-53 5.68694e-54 2.66293e-54 1.23076e-54 5.59397e-55 2.4508e-55 9.17515e-56 0 
0 2.56237e-75 9.68434e-75 3.38188e-74 1.16484e-73 3.97664e-73 1.34604e-72 4.51732e-72 1.50299e-71 4.95745e-71 1.62091e-70 5.25331e-70 1.68753e-69 5.3726e-69 1.69514e-68 5.30012e-68 1.64208e-67 5.04084e-67 1.53314e-66 4.61952e-66 1.37886e-65 4.07682e-65 1.1939e-64 3.46277e-64 9.94626e-64 2.82906e-63 7.96778e-63 2.22183e-62 6.13377e-62 1.67631e-61 4.53474e-61 1.21419e-60 3.21754e-60 8.4377e-60 2.18952e-59 5.62163e-59 1.42799e-58 3.58836e-58 8.91943e-58 2.19285e-57 5.33174e-57 1.28197e-56 3.04783e-56 7.16421e-56 1.66481e-55 3.8242e-55 8.68257e-55 1.94825e-54 4.32e-54 9.465e-54 2.04885e-53 4.3813e-53 9.25455e-53 1.93071e-52 3.9778e-52 8.0925e-52 1.6255e-51 3.22337e-51 6.30957e-51 1.21901e-50 2.32425e-50 4.37297e-50 8.11782e-50 1.48669e-49 2.68578e-49 4.78563e-49 8.40964e-49 1.45726e-48 2.48982e-48 4.19395e-48 6.96396e-48 1.13978e-47 1.83853e-47 2.92256e-47 4.57782e-47 7.06502e-47 1.07421e-46 1.60899e-46 2.37395e-46 3.44996e-46 4.93802e-46 6.96092e-46 9.66354e-46 1.32114e-45 1.77868e-45 2.35818e-45 3.07891e-45 3.95882e-45 5.01312e-45 6.25251e-45 7.6815e-45 9.2969e-45 1.10866e-44 1.30291e-44 1.50933e-44 1.72398e-44 1.94225e-44 2.15908e-44 2.36934e-44 2.56807e-44 2.7509e-44 2.91429e-44 3.05576e-44 3.17405e-44 3.26914e-44 3.34218e-44 3.3953e-44 3.43143e-44 3.45396e-44 3.46646e-44 3.47243e-44 3.47503e-44 3.47695e-44 3.48023e-44 3.48631e-44 3.49598e-44 3.50951e-44 3.52674e-44 3.54721e-44 3.57026e-44 3.59518e-44 3.62129e-44 3.64798e-44 3.67477e-44 3.70129e-44 3.72729e-44 3.75257e-44 3.77695e-44 3.80025e-44 3.8222e-44 3.84248e-44 3.86065e-44 3.87619e-44 3.8885e-44 3.89699e-44 3.90106e-44 3.90022e-44 3.89409e-44 3.88248e-44 3.86538e-44 3.843e-44 3.81573e-44 3.78414e-44 3.74887e-44 3.71063e-44 3.67011e-44 3.62793e-44 3.58461e-44 3.54053e-44 3.49596e-44 3.45108e-44 3.40602e-44 3.36095e-44 3.31609e-44 3.27181e-44 3.22865e-44 3.18733e-44 3.14871e-44 3.11379e-44 3.08358e-44 3.05903e-44 3.04092e-44 3.02978e-44 3.0258e-44 3.02881e-44 3.03823e-44 3.05316e-44 3.07243e-44 3.09468e-44 3.11853e-44 3.14263e-44 3.16584e-44 3.18725e-44 3.20627e-44 3.22264e-44 3.23639e-44 3.24774e-44 3.2571e-44 3.26486e-44 3.27136e-44 3.27675e-44 3.28091e-44 3.2834e-44 3.28345e-44 3.27999e-44 3.27162e-44 3.25679e-44 3.23379e-44 3.20093e-44 3.15663e-44 3.09947e-44 3.02839e-44 2.94268e-44 2.84207e-44 2.72678e-44 2.59752e-44 2.45552e-44 2.30242e-44 2.1403e-44 1.97156e-44 1.79883e-44 1.62488e-44 1.45251e-44 1.2844e-44 1.12303e-44 9.70572e-45 8.28808e-45 6.99073e-45 5.82235e-45 4.78693e-45 3.88404e-45 3.10939e-45 2.45551e-45 1.9125e-45 1.46887e-45 1.11232e-45 8.30402e-46 6.1111e-46 4.43293e-46 3.1694e-46 2.23338e-46 1.55109e-46 1.06169e-46 7.16214e-47 4.76194e-47 3.12056e-47 2.01561e-47 1.28328e-47 8.05394e-48 4.98298e-48 3.03946e-48 1.82794e-48 1.08398e-48 6.3388e-49 3.65563e-49 2.07934e-49 1.16664e-49 6.45711e-50 3.52593e-50 1.89971e-50 1.01e-50 5.29934e-51 2.74431e-51 1.40282e-51 7.07902e-52 3.52689e-52 1.73502e-52 8.4286e-53 4.04379e-53 1.91618e-53 8.9678e-54 4.14255e-54 1.88188e-54 8.24092e-55 3.08407e-55 0 