# vtk DataFile Version 3.0
Gray-Scott Simulation Output
ASCII
DATASET STRUCTURED_POINTS
DIMENSIONS 256 256 1
SPACING 1.0 1.0 1.0
ORIGIN 0 0 0
POINT_DATA 65536
SCALARS u double
LOOKUP_TABLE default
0 0 0 0 0 0 0 0 0 0 0 0 0 0 0 0 0 0 0 0 0 0 0 0 0 0 0 0 0 0 0 0 0 0 0 0 0 0 0 0 0 0 0 0 0 0 0 0 0 0 0 0 0 0 0 0 0 0 0 0 0 0 0 0 0 0 0 0 0 0 0 0 0 0 0 0 0 0 0 0 0 0 0 0 0 0 0 0 0 0 0 0 0 0 0 0 0 0 0 0 0 0 0 0 0 0 0 0 0 0 0 0 0 0 0 0 0 0 0 0 0 0 0 0 0 0 0 0 0 0 0 0 0 0 0 0 0 0 0 0 0 0 0 0 0 0 0 0 0 0 0 0 0 0 0 0 0 0 0 0 0 0 0 0 0 0 0 0 0 0 0 0 0 0 0 0 0 0 0 0 0 0 0 0 0 0 0 0 0 0 0 0 0 0 0 0 0 0 0 0 0 0 0 0 0 0 0 0 0 0 0 0 0 0 0 0 0 0 0 0 0 0 0 0 0 0 0 0 0 0 0 0 0 0 0 0 0 0 0 0 0 0 0 0 0 0 0 0 0 0 0 0 0 0 0 0 
0 5.38598e-80 2.05163e-79 7.22868e-79 2.51233e-78 8.65388e-78 2.95527e-77 1.00051e-76 3.35782e-76 1.11707e-75 3.68347e-75 1.20383e-74 3.89917e-74 1.25156e-73 3.98082e-73 1.2546e-72 3.91763e-72 1.21197e-71 3.71435e-71 1.12762e-70 3.39079e-70 1.00987e-69 2.97869e-69 8.70051e-69 2.51647e-68 7.20664e-68 2.0433e-67 5.73533e-67 1.59358e-66 4.3827e-66 1.19297e-65 3.21363e-65 8.56658e-65 2.25957e-64 5.89676e-64 1.52241e-63 3.88812e-63 9.822e-63 2.45399e-62 6.06339e-62 1.48146e-61 3.57893e-61 8.54798e-61 2.01827e-60 4.71038e-60 1.08656e-59 2.47699e-59 5.5799e-59 1.24198e-58 2.73115e-58 5.93298e-58 1.27306e-57 2.69793e-57 5.64639e-57 1.16687e-56 2.38088e-56 4.7959e-56 9.53615e-56 1.87154e-55 3.62493e-55 6.92832e-55 1.30658e-54 2.43096e-54 4.46176e-54 8.07741e-54 1.44222e-53 2.53943e-53 4.40902e-53 7.54751e-53 1.27373e-52 2.11896e-52 3.47452e-52 5.61505e-52 8.94255e-52 1.4034e-51 2.17008e-51 3.30607e-51 4.96206e-51 7.33662e-51 1.06854e-50 1.53293e-50 2.16607e-50 3.01462e-50 4.1323e-50 5.57886e-50 7.4182e-50 9.71536e-50 1.25327e-49 1.5925e-49 1.99342e-49 2.45838e-49 2.98734e-49 3.57748e-49 4.22291e-49 4.91465e-49 5.64078e-49 6.387e-49 7.13729e-49 7.87486e-49 8.58323e-49 9.24728e-49 9.85427e-49 1.03947e-48 1.08626e-48 1.12564e-48 1.15779e-48 1.18326e-48 1.20288e-48 1.21764e-48 1.22866e-48 1.23703e-48 1.24378e-48 1.2498e-48 1.25579e-48 1.26225e-48 1.26949e-48 1.27764e-48 1.28668e-48 1.2965e-48 1.3069e-48 1.3177e-48 1.32867e-48 1.33966e-48 1.35052e-48 1.36115e-48 1.37147e-48 1.38145e-48 1.39103e-48 1.40015e-48 1.40872e-48 1.41662e-48 1.42367e-48 1.42969e-48 1.43445e-48 1.43771e-48 1.43925e-48 1.43888e-48 1.43645e-48 1.43189e-48 1.4252e-48 1.41645e-48 1.4058e-48 1.39346e-48 1.37969e-48 1.36476e-48 1.34893e-48 1.33245e-48 1.31552e-48 1.2983e-48 1.28088e-48 1.26335e-48 1.24576e-48 1.22819e-48 1.21071e-48 1.19348e-48 1.1767e-48 1.16066e-48 1.14568e-48 1.13214e-48 1.12043e-48 1.11091e-48 1.10388e-48 1.09955e-48 1.09797e-48 1.09908e-48 1.10266e-48 1.10838e-48 1.11577e-48 1.12432e-48 1.1335e-48 1.14279e-48 1.15174e-48 1.16001e-48 1.16737e-48 1.17371e-48 1.17901e-48 1.18336e-48 1.1869e-48 1.18976e-48 1.19205e-48 1.19381e-48 1.19497e-48 1.19535e-48 1.19465e-48 1.19243e-48 1.18816e-48 1.18124e-48 1.17105e-48 1.15696e-48 1.13839e-48 1.11489e-48 1.0861e-48 1.05185e-48 1.01213e-48 9.67137e-49 9.17241e-49 8.63007e-49 8.05151e-49 7.44524e-49 6.82074e-49 6.18806e-49 5.55743e-49 4.93879e-49 4.34141e-49 3.77353e-49 3.24208e-49 2.75242e-49 2.30827e-49 1.91167e-49 1.56308e-49 1.26148e-49 1.00464e-49 7.89385e-50 6.11832e-50 4.67705e-50 3.52572e-50 2.62064e-50 1.92048e-50 1.38744e-50 9.88096e-51 6.93649e-51 4.79979e-51 3.2737e-51 2.20084e-51 1.45838e-51 9.52567e-52 6.13301e-52 3.89243e-52 2.43532e-52 1.50212e-52 9.13454e-53 5.4769e-53 3.238e-53 1.88776e-53 1.08537e-53 6.15472e-54 3.44249e-54 1.89938e-54 1.03386e-54 5.55224e-55 2.94218e-55 1.53854e-55 7.94013e-56 4.04455e-56 2.03366e-56 1.00948e-56 4.94733e-57 2.3941e-57 1.14407e-57 5.39924e-58 2.51636e-58 1.15748e-58 5.23594e-59 2.28376e-59 8.52044e-60 0 
0 2.04862e-79 7.80476e-79 2.75038e-78 9.56067e-78 3.29384e-77 1.12504e-76 3.80959e-76 1.27879e-75 4.25511e-75 1.40339e-74 4.58754e-74 1.48622e-73 4.77156e-73 1.51804e-72 4.7854e-72 1.49465e-71 4.62505e-71 1.41781e-70 4.30536e-70 1.29498e-69 3.85786e-69 1.13822e-68 3.32559e-68 9.62147e-68 2.7562e-67 7.81704e-67 2.19483e-66 6.10031e-66 1.67826e-65 4.5697e-65 1.2314e-64 3.28367e-64 8.66417e-64 2.26187e-63 5.8417e-63 1.49247e-62 3.7716e-62 9.42671e-62 2.33007e-61 5.69521e-61 1.37639e-60 3.28871e-60 7.7681e-60 1.81371e-59 4.18546e-59 9.5454e-59 2.15119e-58 4.79017e-58 1.05382e-57 2.29023e-57 4.91637e-57 1.04235e-56 2.18245e-56 4.51216e-56 9.21066e-56 1.85616e-55 3.69239e-55 7.24976e-55 1.4048e-54 2.68616e-54 5.0679e-54 9.43313e-54 1.73208e-53 3.13701e-53 5.60342e-53 9.8704e-53 1.7144e-52 2.93592e-52 4.95659e-52 8.24873e-52 1.35305e-51 2.18736e-51 3.48474e-51 5.47047e-51 8.46149e-51 1.28945e-50 1.93582e-50 2.86287e-50 4.1705e-50 5.98415e-50 8.45721e-50 1.17719e-49 1.61382e-49 2.17895e-49 2.89751e-49 3.79487e-49 4.89532e-49 6.22015e-49 7.7856e-49 9.6006e-49 1.16648e-48 1.39668e-48 1.64834e-48 1.9179e-48 2.20069e-48 2.49108e-48 2.7828e-48 3.06928e-48 3.34408e-48 3.60131e-48 3.83604e-48 4.04457e-48 4.22468e-48 4.37571e-48 4.49851e-48 4.59527e-48 4.66922e-48 4.72436e-48 4.76501e-48 4.7955e-48 4.81985e-48 4.84151e-48 4.86323e-48 4.88696e-48 4.91387e-48 4.94444e-48 4.97861e-48 5.0159e-48 5.05558e-48 5.09684e-48 5.13888e-48 5.18101e-48 5.22268e-48 5.2635e-48 5.3032e-48 5.34156e-48 5.37841e-48 5.41349e-48 5.44647e-48 5.47687e-48 5.50405e-48 5.52725e-48 5.5456e-48 5.5582e-48 5.56417e-48 5.56277e-48 5.55345e-48 5.53591e-48 5.51015e-48 5.47648e-48 5.43549e-48 5.388e-48 5.33499e-48 5.27751e-48 5.2166e-48 5.15318e-48 5.08804e-48 5.02177e-48 4.95477e-48 4.88733e-48 4.81967e-48 4.75203e-48 4.68476e-48 4.61843e-48 4.55384e-48 4.49204e-48 4.43433e-48 4.38217e-48 4.33705e-48 4.30037e-48 4.2733e-48 4.25659e-48 4.25053e-48 4.25486e-48 4.26873e-48 4.2908e-48 4.31935e-48 4.35236e-48 4.38777e-48 4.42361e-48 4.45814e-48 4.49002e-48 4.51837e-48 4.54275e-48 4.56316e-48 4.57992e-48 4.59354e-48 4.60457e-48 4.61344e-48 4.62031e-48 4.62493e-48 4.6266e-48 4.62414e-48 4.61589e-48 4.59981e-48 4.57358e-48 4.53476e-48 4.48093e-48 4.40989e-48 4.31978e-48 4.20926e-48 4.0776e-48 3.92478e-48 3.75148e-48 3.55914e-48 3.34989e-48 3.12648e-48 2.89218e-48 2.65063e-48 2.40573e-48 2.16143e-48 1.92159e-48 1.68983e-48 1.46935e-48 1.26288e-48 1.07252e-48 8.99744e-49 7.45384e-49 6.09634e-49 4.92128e-49 3.9202e-49 3.08085e-49 2.38828e-49 1.82593e-49 1.3766e-49 1.02329e-49 7.49929e-50 5.41794e-50 3.85845e-50 2.70855e-50 1.87409e-50 1.27811e-50 8.59146e-51 5.69233e-51 3.71745e-51 2.39301e-51 1.51847e-51 9.49831e-52 5.85721e-52 3.56094e-52 2.13451e-52 1.26159e-52 7.35297e-53 4.22633e-53 2.39584e-53 1.33962e-53 7.38885e-54 4.02052e-54 2.15844e-54 1.14338e-54 5.97687e-55 3.08345e-55 1.57008e-55 7.89176e-56 3.91592e-56 1.91844e-56 9.28023e-57 4.43311e-57 2.09137e-57 9.74343e-58 4.48016e-58 2.02592e-58 8.83359e-59 3.2949e-59 0 
0 7.20582e-79 2.74571e-78 9.67776e-78 3.36481e-77 1.15949e-76 3.96123e-76 1.34164e-75 4.50464e-75 1.49925e-74 4.94594e-74 1.61718e-73 5.2405e-73 1.68292e-72 5.35554e-72 1.68873e-71 5.276e-71 1.63308e-70 5.00768e-70 1.52111e-69 4.57667e-69 1.36386e-68 4.02523e-68 1.17646e-67 3.40484e-67 9.757e-67 2.76822e-66 7.77528e-66 2.16186e-65 5.94972e-65 1.62066e-64 4.3689e-64 1.16547e-63 3.07642e-63 8.03458e-63 2.07595e-62 5.306e-62 1.34145e-61 3.35428e-61 8.2947e-61 2.02833e-60 4.90421e-60 1.17234e-59 2.77042e-59 6.4715e-59 1.49413e-58 3.40918e-58 7.68683e-58 1.71251e-57 3.76935e-57 8.19592e-57 1.76028e-56 3.73399e-56 7.8221e-56 1.61803e-55 3.30458e-55 6.6629e-55 1.32611e-54 2.60507e-54 5.05047e-54 9.66208e-54 1.82384e-53 3.39651e-53 6.23965e-53 1.13063e-52 2.02055e-52 3.56088e-52 6.18784e-52 1.06015e-51 1.79061e-51 2.9812e-51 4.89214e-51 7.9119e-51 1.26095e-50 1.9802e-50 3.06396e-50 4.67069e-50 7.01412e-50 1.0376e-49 1.51191e-49 2.16989e-49 3.06724e-49 4.27012e-49 5.85472e-49 7.90573e-49 1.05135e-48 1.37701e-48 1.77631e-48 2.25694e-48 2.82474e-48 3.48284e-48 4.23101e-48 5.06502e-48 5.97624e-48 6.95167e-48 7.97418e-48 9.02324e-48 1.0076e-47 1.11086e-47 1.20977e-47 1.30219e-47 1.38635e-47 1.46093e-47 1.52514e-47 1.57876e-47 1.62214e-47 1.65608e-47 1.68178e-47 1.70071e-47 1.71445e-47 1.72458e-47 1.73256e-47 1.73964e-47 1.74681e-47 1.75478e-47 1.76396e-47 1.77453e-47 1.78645e-47 1.79954e-47 1.81353e-47 1.82812e-47 1.84302e-47 1.85798e-47 1.8728e-47 1.88732e-47 1.90145e-47 1.91511e-47 1.92824e-47 1.94075e-47 1.95251e-47 1.96336e-47 1.97306e-47 1.98135e-47 1.98791e-47 1.99241e-47 1.99456e-47 1.99407e-47 1.99076e-47 1.98451e-47 1.97533e-47 1.96332e-47 1.9487e-47 1.93176e-47 1.91285e-47 1.89235e-47 1.87063e-47 1.84802e-47 1.8248e-47 1.80117e-47 1.77729e-47 1.75326e-47 1.72914e-47 1.70502e-47 1.68104e-47 1.65738e-47 1.63433e-47 1.61227e-47 1.59167e-47 1.57304e-47 1.55693e-47 1.54383e-47 1.53416e-47 1.5282e-47 1.52605e-47 1.52761e-47 1.53259e-47 1.5405e-47 1.55072e-47 1.56253e-47 1.5752e-47 1.58801e-47 1.60035e-47 1.61174e-47 1.62186e-47 1.63056e-47 1.63784e-47 1.64381e-47 1.64867e-47 1.65262e-47 1.65581e-47 1.6583e-47 1.66001e-47 1.66069e-47 1.65992e-47 1.65711e-47 1.65152e-47 1.64234e-47 1.62867e-47 1.60965e-47 1.58449e-47 1.55251e-47 1.51322e-47 1.46636e-47 1.41189e-47 1.35005e-47 1.28134e-47 1.20652e-47 1.12655e-47 1.0426e-47 9.55967e-48 8.68052e-48 7.80271e-48 6.94016e-48 6.10591e-48 5.31165e-48 4.56722e-48 3.88037e-48 3.25653e-48 2.69881e-48 2.20803e-48 1.78296e-48 1.42065e-48 1.11673e-48 8.65859e-49 6.62087e-49 4.99217e-49 3.71125e-49 2.71997e-49 1.9651e-49 1.39945e-49 9.82335e-50 6.79642e-50 4.63458e-50 3.11494e-50 2.06349e-50 1.34734e-50 8.67128e-51 5.501e-51 3.4401e-51 2.12078e-51 1.28897e-51 7.72395e-52 4.56372e-52 2.65897e-52 1.52778e-52 8.65756e-53 4.83901e-53 2.66799e-53 1.45117e-53 7.78753e-54 4.12356e-54 2.15465e-54 1.11111e-54 5.65537e-55 2.84136e-55 1.40929e-55 6.90127e-56 3.33697e-56 1.59337e-56 7.51366e-57 3.49902e-57 1.60821e-57 7.2693e-58 3.16843e-58 1.18147e-58 0 
0 2.49997e-78 9.52757e-78 3.35887e-77 1.16808e-76 4.02603e-76 1.37576e-75 4.66069e-75 1.56524e-74 5.21076e-74 1.71944e-73 5.62355e-73 1.82281e-72 5.85536e-72 1.86387e-71 5.87892e-71 1.83726e-70 5.6886e-70 1.74489e-69 5.3019e-69 1.59574e-68 4.75692e-68 1.40441e-67 4.10612e-67 1.18879e-66 3.40786e-66 9.67223e-66 2.71773e-65 7.55933e-65 2.08125e-64 5.67141e-64 1.5295e-63 4.08187e-63 1.07792e-62 2.81637e-62 7.28004e-62 1.86156e-61 4.70848e-61 1.17789e-60 2.91412e-60 7.12935e-60 1.7246e-59 4.12462e-59 9.75192e-59 2.27911e-58 5.26463e-58 1.20185e-57 2.71126e-57 6.04344e-57 1.33089e-56 2.89537e-56 6.22184e-56 1.32051e-55 2.76774e-55 5.72827e-55 1.17054e-54 2.3614e-54 4.70241e-54 9.2426e-54 1.79284e-53 3.43173e-53 6.48128e-53 1.20764e-52 2.21968e-52 4.02418e-52 7.19527e-52 1.26868e-51 2.20571e-51 3.78083e-51 6.38885e-51 1.06417e-50 1.74707e-50 2.82668e-50 4.50681e-50 7.08028e-50 1.09593e-49 1.67121e-49 2.51051e-49 3.71489e-49 5.41449e-49 7.77272e-49 1.09894e-48 1.53018e-48 2.09831e-48 2.83369e-48 3.7687e-48 4.93621e-48 6.36759e-48 8.0902e-48 1.01247e-47 1.24819e-47 1.51608e-47 1.81455e-47 2.14046e-47 2.4891e-47 2.85427e-47 3.22857e-47 3.60377e-47 3.97129e-47 4.32278e-47 4.65062e-47 4.94848e-47 5.21168e-47 5.43751e-47 5.62528e-47 5.77627e-47 5.89352e-47 5.98138e-47 6.04517e-47 6.0906e-47 6.12338e-47 6.14875e-47 6.17119e-47 6.19425e-47 6.22041e-47 6.25117e-47 6.28708e-47 6.32801e-47 6.37328e-47 6.42192e-47 6.47283e-47 6.52495e-47 6.57734e-47 6.6293e-47 6.68027e-47 6.7299e-47 6.77793e-47 6.82409e-47 6.8681e-47 6.9095e-47 6.9477e-47 6.98189e-47 7.01111e-47 7.03425e-47 7.05018e-47 7.05779e-47 7.05613e-47 7.04451e-47 7.02255e-47 6.99024e-47 6.94798e-47 6.89651e-47 6.83687e-47 6.77031e-47 6.69815e-47 6.6217e-47 6.54214e-47 6.46043e-47 6.37731e-47 6.29331e-47 6.20875e-47 6.1239e-47 6.03905e-47 5.95463e-47 5.87134e-47 5.79017e-47 5.71247e-47 5.63988e-47 5.57424e-47 5.51744e-47 5.47127e-47 5.4372e-47 5.41621e-47 5.40867e-47 5.41424e-47 5.43185e-47 5.45982e-47 5.49595e-47 5.53769e-47 5.58242e-47 5.62764e-47 5.67117e-47 5.71132e-47 5.74697e-47 5.77759e-47 5.80319e-47 5.82422e-47 5.84133e-47 5.85527e-47 5.86658e-47 5.87551e-47 5.88176e-47 5.88449e-47 5.88219e-47 5.8728e-47 5.85373e-47 5.82203e-47 5.7746e-47 5.70836e-47 5.62046e-47 5.50852e-47 5.37076e-47 5.20617e-47 5.01461e-47 4.79688e-47 4.55468e-47 4.29062e-47 4.0081e-47 3.71121e-47 3.40453e-47 3.09298e-47 2.7816e-47 2.47534e-47 2.17885e-47 1.89632e-47 1.63129e-47 1.38657e-47 1.16413e-47 9.65122e-48 7.89885e-48 6.38024e-48 5.08512e-48 3.99822e-48 3.10066e-48 2.37133e-48 1.78823e-48 1.32951e-48 9.74446e-49 7.04022e-49 5.01361e-49 3.51909e-49 2.43452e-49 1.65995e-49 1.1155e-49 7.38835e-50 4.82318e-50 3.10344e-50 1.96831e-50 1.23057e-50 7.58407e-51 4.60801e-51 2.76037e-51 1.63041e-51 9.49591e-52 5.45407e-52 3.0895e-52 1.72614e-52 9.51321e-53 5.17226e-53 2.77446e-53 1.46846e-53 7.66972e-54 3.95339e-54 2.01131e-54 1.01007e-54 5.00761e-55 2.4511e-55 1.18465e-55 5.654e-56 2.66499e-56 1.2405e-56 5.699e-57 2.5749e-57 1.12186e-57 4.18203e-58 0 
0 8.59578e-78 3.27652e-77 1.15536e-76 4.01879e-76 1.38548e-75 4.7355e-75 1.60465e-74 5.39038e-74 1.79495e-73 5.92452e-73 1.93818e-72 6.28414e-72 2.0192e-71 6.42936e-71 2.02852e-70 6.34141e-70 1.96406e-69 6.02641e-69 1.83174e-68 5.51491e-68 1.64457e-67 4.85703e-67 1.42057e-66 4.1143e-66 1.17987e-65 3.35e-65 9.41656e-65 2.62025e-64 7.21702e-64 1.96745e-63 5.30816e-63 1.41723e-62 3.74418e-62 9.78708e-62 2.531e-61 6.47492e-61 1.63848e-60 4.10081e-60 1.01504e-59 2.48448e-59 6.01299e-59 1.43881e-58 3.40353e-58 7.95845e-58 1.83932e-57 4.20115e-57 9.48242e-57 2.11478e-56 4.65972e-56 1.01428e-55 2.18077e-55 4.63099e-55 9.71178e-55 2.01112e-54 4.11193e-54 8.29987e-54 1.65374e-53 3.25225e-53 6.31209e-53 1.20889e-52 2.28441e-52 4.25881e-52 7.83213e-52 1.42069e-51 2.54156e-51 4.48366e-51 7.79921e-51 1.33754e-50 2.26128e-50 3.76833e-50 6.18938e-50 1.00186e-49 1.59802e-49 2.51154e-49 3.88899e-49 5.93254e-49 8.9149e-49 1.31958e-48 1.92383e-48 2.76243e-48 3.90648e-48 5.44046e-48 7.46155e-48 1.00777e-47 1.3404e-47 1.75571e-47 2.26481e-47 2.87738e-47 3.60065e-47 4.43841e-47 5.39004e-47 6.44978e-47 7.60626e-47 8.84248e-47 1.01362e-46 1.14609e-46 1.27873e-46 1.40847e-46 1.53235e-46 1.64766e-46 1.75218e-46 1.84426e-46 1.92297e-46 1.9881e-46 2.04014e-46 2.08021e-46 2.10988e-46 2.13106e-46 2.14581e-46 2.15617e-46 2.16401e-46 2.17091e-46 2.17814e-46 2.18657e-46 2.19671e-46 2.20877e-46 2.22267e-46 2.23817e-46 2.25492e-46 2.27252e-46 2.29057e-46 2.30877e-46 2.32683e-46 2.34456e-46 2.36185e-46 2.37858e-46 2.39468e-46 2.41003e-46 2.42447e-46 2.43781e-46 2.44976e-46 2.45997e-46 2.46807e-46 2.47365e-46 2.47632e-46 2.47577e-46 2.47172e-46 2.46407e-46 2.4528e-46 2.43805e-46 2.42009e-46 2.39927e-46 2.37604e-46 2.35086e-46 2.32418e-46 2.29642e-46 2.26792e-46 2.23893e-46 2.20963e-46 2.18014e-46 2.15055e-46 2.12095e-46 2.09149e-46 2.06242e-46 2.03408e-46 2.00694e-46 1.98158e-46 1.95864e-46 1.93879e-46 1.92266e-46 1.91075e-46 1.90343e-46 1.90081e-46 1.90277e-46 1.90896e-46 1.91877e-46 1.93143e-46 1.94605e-46 1.96171e-46 1.97754e-46 1.99276e-46 2.0068e-46 2.01925e-46 2.02994e-46 2.03887e-46 2.0462e-46 2.05218e-46 2.05706e-46 2.06104e-46 2.06421e-46 2.06649e-46 2.06756e-46 2.06691e-46 2.06382e-46 2.05737e-46 2.04655e-46 2.03026e-46 2.00741e-46 1.97699e-46 1.93817e-46 1.89029e-46 1.83301e-46 1.76624e-46 1.69025e-46 1.60562e-46 1.51324e-46 1.41429e-46 1.31019e-46 1.20254e-46 1.09307e-46 9.83541e-47 8.75704e-47 7.71208e-47 6.71538e-47 5.77959e-47 4.91475e-47 4.12805e-47 3.4237e-47 2.80307e-47 2.26489e-47 1.80565e-47 1.42006e-47 1.1015e-47 8.42553e-48 6.35452e-48 4.72489e-48 3.46322e-48 2.50216e-48 1.78184e-48 1.25062e-48 8.65107e-49 5.89789e-49 3.96284e-49 2.62424e-49 1.71277e-49 1.10181e-49 6.98623e-50 4.36648e-50 2.69028e-50 1.63406e-50 9.78527e-51 5.77758e-51 3.36374e-51 1.93125e-51 1.09353e-51 6.10717e-52 3.3644e-52 1.82841e-52 9.80348e-53 5.18647e-53 2.70765e-53 1.39503e-53 7.09403e-54 3.56093e-54 1.76458e-54 8.63315e-55 4.17056e-55 1.98956e-55 9.37334e-56 4.36106e-56 2.00261e-56 9.04404e-57 3.93879e-57 1.46783e-57 0 
0 2.93004e-77 1.11708e-76 3.93988e-76 1.37076e-75 4.72682e-75 1.616e-74 5.47729e-74 1.84041e-73 6.13004e-73 2.02387e-72 6.62282e-72 2.14792e-71 6.90366e-71 2.19886e-70 6.93972e-70 2.17012e-69 6.72347e-69 2.06366e-68 6.27465e-68 1.88979e-67 5.63742e-67 1.66554e-66 4.87313e-66 1.4119e-65 4.0505e-65 1.15051e-64 3.23527e-64 9.00609e-64 2.48161e-63 6.76805e-63 1.8268e-62 4.87954e-62 1.2897e-61 3.37275e-61 8.72618e-61 2.23342e-60 5.65439e-60 1.41588e-59 3.50634e-59 8.5867e-59 2.07923e-58 4.97781e-58 1.17813e-57 2.75628e-57 6.37358e-57 1.45657e-56 3.28943e-56 7.34018e-56 1.61824e-55 3.52441e-55 7.58205e-55 1.61101e-54 3.38043e-54 7.00427e-54 1.43292e-53 2.894e-53 5.7696e-53 1.13531e-52 2.20473e-52 4.22492e-52 7.98833e-52 1.49011e-51 2.74192e-51 4.97641e-51 8.9075e-51 1.57226e-50 2.73635e-50 4.6952e-50 7.94187e-50 1.32413e-49 2.17589e-49 3.52367e-49 5.62295e-49 8.84104e-49 1.36954e-48 2.08997e-48 3.14172e-48 4.65185e-48 6.78399e-48 9.74366e-48 1.37821e-47 1.91977e-47 2.63337e-47 3.5571e-47 4.73155e-47 6.19782e-47 7.995e-47 1.0157e-46 1.2709e-46 1.56638e-46 1.90189e-46 2.27531e-46 2.68255e-46 3.11754e-46 3.57236e-46 4.03759e-46 4.50281e-46 4.95722e-46 5.39032e-46 5.79263e-46 6.15633e-46 6.47574e-46 6.74767e-46 6.97151e-46 7.14913e-46 7.28455e-46 7.3835e-46 7.45278e-46 7.49973e-46 7.53155e-46 7.55488e-46 7.57533e-46 7.5973e-46 7.62387e-46 7.6568e-46 7.69675e-46 7.74347e-46 7.79603e-46 7.85316e-46 7.91343e-46 7.97546e-46 8.03808e-46 8.10033e-46 8.16153e-46 8.22122e-46 8.27904e-46 8.33468e-46 8.38777e-46 8.43778e-46 8.48397e-46 8.52536e-46 8.56077e-46 8.58887e-46 8.60826e-46 8.6176e-46 8.61573e-46 8.6018e-46 8.57534e-46 8.53636e-46 8.48532e-46 8.42314e-46 8.35108e-46 8.27066e-46 8.1835e-46 8.09118e-46 7.99513e-46 7.89653e-46 7.79626e-46 7.69492e-46 7.59293e-46 7.49056e-46 7.38816e-46 7.28623e-46 7.18559e-46 7.08746e-46 6.99346e-46 6.90559e-46 6.82609e-46 6.75729e-46 6.70136e-46 6.6601e-46 6.63474e-46 6.62571e-46 6.63261e-46 6.65416e-46 6.68828e-46 6.73228e-46 6.78309e-46 6.83748e-46 6.89241e-46 6.94522e-46 6.99387e-46 7.037e-46 7.074e-46 7.1049e-46 7.13027e-46 7.15097e-46 7.16791e-46 7.18183e-46 7.19302e-46 7.20121e-46 7.20535e-46 7.20368e-46 7.19366e-46 7.17216e-46 7.13559e-46 7.08016e-46 7.00205e-46 6.89777e-46 6.76431e-46 6.59943e-46 6.40178e-46 6.17108e-46 5.90814e-46 5.61491e-46 5.29444e-46 4.95077e-46 4.58878e-46 4.21403e-46 3.83249e-46 3.45035e-46 3.07371e-46 2.70836e-46 2.35955e-46 2.03175e-46 1.72853e-46 1.45248e-46 1.20514e-46 9.87046e-47 7.97802e-47 6.36226e-47 5.00489e-47 3.88298e-47 2.97065e-47 2.24076e-47 1.66626e-47 1.22139e-47 8.8246e-48 6.28404e-48 4.4103e-48 3.0505e-48 2.07942e-48 1.39695e-48 9.24903e-49 6.03525e-49 3.88146e-49 2.46045e-49 1.53736e-49 9.46896e-50 5.74945e-50 3.44173e-50 2.03137e-50 1.18221e-50 6.78478e-51 3.84015e-51 2.14374e-51 1.18045e-51 6.4124e-52 3.43661e-52 1.81728e-52 9.48283e-53 4.88343e-53 2.48215e-53 1.24535e-53 6.16819e-54 3.01632e-54 1.45644e-54 6.94457e-55 3.27019e-55 1.52077e-55 6.98006e-56 3.15083e-56 1.37164e-56 5.10992e-57 0 
0 9.90115e-77 3.77554e-76 1.33192e-75 4.6351e-75 1.59872e-74 5.46706e-74 1.85349e-73 6.22952e-73 2.07549e-72 6.85424e-72 2.24359e-71 7.27858e-71 2.34012e-70 7.45571e-70 2.3538e-69 7.36296e-69 2.28194e-68 7.00643e-68 2.13107e-67 6.4206e-67 1.91601e-66 5.66285e-66 1.65749e-65 4.80412e-65 1.37876e-64 3.91783e-64 1.10216e-63 3.0694e-63 8.46127e-63 2.30863e-62 6.23413e-62 1.66594e-61 4.40525e-61 1.15257e-60 2.98344e-60 7.63968e-60 1.9351e-59 4.84801e-59 1.20119e-58 2.94313e-58 7.13038e-58 1.70797e-57 4.04455e-57 9.46754e-57 2.19047e-56 5.00875e-56 1.13179e-55 2.52696e-55 5.57426e-55 1.21474e-54 2.61479e-54 5.5591e-54 1.16718e-53 2.41984e-53 4.95341e-53 1.00102e-52 1.99687e-52 3.93169e-52 7.63977e-52 1.46488e-51 2.7714e-51 5.17269e-51 9.52373e-51 1.7295e-50 3.09748e-50 5.47041e-50 9.52596e-50 1.63541e-49 2.76773e-49 4.61695e-49 7.59061e-49 1.22982e-48 1.96341e-48 3.08845e-48 4.78621e-48 7.30681e-48 1.09879e-47 1.62748e-47 2.37415e-47 3.41086e-47 4.82571e-47 6.72331e-47 9.22396e-47 1.24611e-46 1.65768e-46 2.17148e-46 2.80114e-46 3.55845e-46 4.45212e-46 5.48649e-46 6.6604e-46 7.96623e-46 9.3894e-46 1.09083e-45 1.2495e-45 1.41161e-45 1.57351e-45 1.7314e-45 1.88161e-45 2.02083e-45 2.14634e-45 2.25619e-45 2.34931e-45 2.42552e-45 2.48553e-45 2.53079e-45 2.56335e-45 2.58563e-45 2.60022e-45 2.60965e-45 2.61626e-45 2.62201e-45 2.62843e-45 2.63659e-45 2.6471e-45 2.66016e-45 2.67568e-45 2.69332e-45 2.71263e-45 2.73308e-45 2.75421e-45 2.77557e-45 2.79684e-45 2.81778e-45 2.83822e-45 2.85803e-45 2.87711e-45 2.89532e-45 2.91248e-45 2.92834e-45 2.94257e-45 2.95475e-45 2.96442e-45 2.9711e-45 2.97433e-45 2.97371e-45 2.96895e-45 2.95988e-45 2.94651e-45 2.929e-45 2.90765e-45 2.88291e-45 2.8553e-45 2.82539e-45 2.7937e-45 2.76075e-45 2.72692e-45 2.69252e-45 2.65777e-45 2.62278e-45 2.58767e-45 2.55254e-45 2.51756e-45 2.48301e-45 2.44931e-45 2.41702e-45 2.38683e-45 2.3595e-45 2.33585e-45 2.31662e-45 2.30245e-45 2.29374e-45 2.29065e-45 2.29305e-45 2.3005e-45 2.31227e-45 2.32744e-45 2.34495e-45 2.36368e-45 2.38259e-45 2.40076e-45 2.41749e-45 2.4323e-45 2.445e-45 2.45561e-45 2.46431e-45 2.47142e-45 2.47725e-45 2.48208e-45 2.486e-45 2.48892e-45 2.49051e-45 2.49014e-45 2.48695e-45 2.47986e-45 2.46764e-45 2.44896e-45 2.42252e-45 2.3871e-45 2.34164e-45 2.28535e-45 2.21776e-45 2.13874e-45 2.04854e-45 1.94781e-45 1.83757e-45 1.71921e-45 1.59438e-45 1.465e-45 1.33312e-45 1.20087e-45 1.07039e-45 9.43683e-46 8.22585e-46 7.08669e-46 6.03202e-46 5.07101e-46 4.20925e-46 3.44881e-46 2.78854e-46 2.22446e-46 1.75034e-46 1.35828e-46 1.03933e-46 7.84068e-47 5.83099e-47 4.2744e-47 3.08831e-47 2.19914e-47 1.54331e-47 1.06736e-47 7.27484e-48 4.88641e-48 3.23457e-48 2.11017e-48 1.35677e-48 8.59806e-49 5.37066e-49 3.30683e-49 2.00717e-49 1.20108e-49 7.08625e-50 4.12238e-50 2.36487e-50 1.33792e-50 7.46557e-51 4.10906e-51 2.23107e-51 1.19514e-51 6.31687e-52 3.29464e-52 1.69583e-52 8.61533e-53 4.32035e-53 2.13881e-53 1.04538e-53 5.04512e-54 2.40441e-54 1.13167e-54 5.26011e-55 2.41312e-55 1.08877e-55 4.73766e-56 1.76438e-56 0 
0 3.31661e-76 1.26495e-75 4.46349e-75 1.55368e-74 5.36023e-74 1.83348e-73 6.21767e-73 2.09031e-72 6.9662e-72 2.30123e-71 7.53479e-71 2.44514e-70 7.86374e-70 2.50621e-69 7.91478e-69 2.47665e-68 7.67829e-68 2.35834e-67 7.17566e-67 2.16271e-66 6.45628e-66 1.9089e-65 5.58943e-65 1.6207e-64 4.65323e-64 1.32279e-63 3.72282e-63 1.03721e-62 2.8605e-62 7.80828e-62 2.10948e-61 5.63977e-61 1.49203e-60 3.90558e-60 1.01146e-59 2.59133e-59 6.56708e-59 1.6461e-58 4.08068e-58 1.00037e-57 2.42494e-57 5.81175e-57 1.37701e-56 3.22515e-56 7.46619e-56 1.70821e-55 3.86215e-55 8.6282e-55 1.90444e-54 4.15263e-54 8.94418e-54 1.90271e-53 3.99735e-53 8.29257e-53 1.69854e-52 3.43465e-52 6.85584e-52 1.3507e-51 2.62622e-51 5.03874e-51 9.5386e-51 1.78143e-50 3.28188e-50 5.96343e-50 1.06866e-49 1.88846e-49 3.29037e-49 5.65204e-49 9.57064e-49 1.59737e-48 2.62755e-48 4.25926e-48 6.80315e-48 1.07063e-47 1.65988e-47 2.53507e-47 3.81365e-47 5.65062e-47 8.24569e-47 1.18497e-46 1.67692e-46 2.33683e-46 3.20654e-46 4.33245e-46 5.76391e-46 7.55079e-46 9.74029e-46 1.23731e-45 1.5479e-45 1.90725e-45 2.31488e-45 2.76806e-45 3.2616e-45 3.78791e-45 4.33714e-45 4.89767e-45 5.45667e-45 6.00093e-45 6.51768e-45 6.99549e-45 7.42499e-45 7.79952e-45 8.11549e-45 8.37249e-45 8.57314e-45 8.72266e-45 8.8283e-45 8.89859e-45 8.94262e-45 8.96927e-45 8.98664e-45 9.00157e-45 9.01935e-45 9.04363e-45 9.07648e-45 9.11858e-45 9.16953e-45 9.22812e-45 9.29272e-45 9.36151e-45 9.43278e-45 9.50504e-45 9.57711e-45 9.64813e-45 9.71751e-45 9.78482e-45 9.84967e-45 9.91162e-45 9.97004e-45 1.00241e-44 1.00725e-44 1.01141e-44 1.01471e-44 1.01699e-44 1.0181e-44 1.0179e-44 1.01629e-44 1.0132e-44 1.00865e-44 1.00269e-44 9.95427e-45 9.87005e-45 9.77607e-45 9.67424e-45 9.56641e-45 9.45427e-45 9.33918e-45 9.22219e-45 9.10398e-45 8.98499e-45 8.86555e-45 8.74603e-45 8.62699e-45 8.50939e-45 8.39464e-45 8.28464e-45 8.18175e-45 8.08862e-45 8.00799e-45 7.94244e-45 7.89413e-45 7.86448e-45 7.85403e-45 7.86232e-45 7.88783e-45 7.92811e-45 7.97999e-45 8.03981e-45 8.10381e-45 8.16836e-45 8.23035e-45 8.28737e-45 8.33785e-45 8.38108e-45 8.41715e-45 8.44676e-45 8.47096e-45 8.4909e-45 8.50749e-45 8.52112e-45 8.5315e-45 8.53747e-45 8.53695e-45 8.527e-45 8.50393e-45 8.46352e-45 8.40125e-45 8.31261e-45 8.1934e-45 8.03998e-45 7.84959e-45 7.62049e-45 7.35218e-45 7.04544e-45 6.7024e-45 6.32647e-45 5.92227e-45 5.49543e-45 5.05245e-45 4.60035e-45 4.14646e-45 3.69809e-45 3.26221e-45 2.84517e-45 2.45246e-45 2.08853e-45 1.75662e-45 1.45874e-45 1.19568e-45 9.67114e-46 7.71724e-46 6.07403e-46 4.71455e-46 3.60813e-46 2.72235e-46 2.02475e-46 1.48432e-46 1.07245e-46 7.63651e-47 5.35877e-47 3.70575e-47 2.52538e-47 1.69596e-47 1.12241e-47 7.3206e-48 4.70563e-48 2.98116e-48 1.86154e-48 1.1458e-48 6.95219e-49 4.15858e-49 2.45252e-49 1.42614e-49 8.17774e-50 4.62449e-50 2.57926e-50 1.41896e-50 7.70075e-51 4.12312e-51 2.17819e-51 1.13549e-51 5.8417e-52 2.96624e-52 1.48673e-52 7.35633e-53 3.59368e-53 1.73346e-53 8.2571e-54 3.88433e-54 1.80455e-54 8.27431e-55 3.73144e-55 1.62296e-55 6.04209e-56 0 
0 1.10122e-75 4.2009e-75 1.48267e-74 5.16226e-74 1.78145e-73 6.09513e-73 2.06753e-72 6.95271e-72 2.31774e-71 7.6587e-71 2.50841e-70 8.14263e-70 2.61955e-69 8.35133e-69 2.63828e-68 8.25838e-68 2.56121e-67 7.86942e-67 2.39528e-66 7.22193e-66 2.15677e-65 6.37931e-65 1.86867e-64 5.42055e-64 1.55696e-63 4.42788e-63 1.24671e-62 3.475e-62 9.58792e-62 2.61842e-61 7.07721e-61 1.89303e-60 5.01055e-60 1.31223e-59 3.40009e-59 8.71544e-59 2.20987e-58 5.54219e-58 1.37465e-57 3.37179e-57 8.17789e-57 1.96107e-56 4.64914e-56 1.08953e-55 2.52373e-55 5.77754e-55 1.30705e-54 2.92179e-54 6.45301e-54 1.40795e-53 3.03443e-53 6.45927e-53 1.35787e-52 2.81872e-52 5.77718e-52 1.16897e-51 2.33485e-51 4.60296e-51 8.95543e-51 1.71932e-50 3.25684e-50 6.08632e-50 1.12197e-49 2.03998e-49 3.65796e-49 6.46797e-49 1.12762e-48 1.93811e-48 3.28369e-48 5.48362e-48 9.02499e-48 1.46371e-47 2.3391e-47 3.68284e-47 5.7124e-47 8.72802e-47 1.31353e-46 1.94694e-46 2.84203e-46 4.08544e-46 5.78307e-46 8.06065e-46 1.10627e-45 1.49492e-45 1.98904e-45 2.60579e-45 3.3614e-45 4.26978e-45 5.34107e-45 6.58004e-45 7.98476e-45 9.54546e-45 1.12439e-44 1.30536e-44 1.494e-44 1.68629e-44 1.87778e-44 2.06389e-44 2.24023e-44 2.40286e-44 2.54859e-44 2.67516e-44 2.7814e-44 2.86723e-44 2.9336e-44 2.98238e-44 3.01612e-44 3.03782e-44 3.05062e-44 3.05763e-44 3.06163e-44 3.06499e-44 3.06951e-44 3.07644e-44 3.08647e-44 3.09983e-44 3.11635e-44 3.1356e-44 3.157e-44 3.17992e-44 3.20375e-44 3.22798e-44 3.25218e-44 3.27606e-44 3.29941e-44 3.32208e-44 3.34394e-44 3.36484e-44 3.38456e-44 3.4028e-44 3.41918e-44 3.43322e-44 3.44439e-44 3.45214e-44 3.45592e-44 3.45527e-44 3.44984e-44 3.43946e-44 3.42412e-44 3.404e-44 3.37947e-44 3.35104e-44 3.31932e-44 3.28495e-44 3.24856e-44 3.21072e-44 3.1719e-44 3.13244e-44 3.09257e-44 3.05245e-44 3.01217e-44 2.97184e-44 2.93168e-44 2.89198e-44 2.85324e-44 2.81608e-44 2.78131e-44 2.74983e-44 2.72258e-44 2.70042e-44 2.68409e-44 2.67408e-44 2.67058e-44 2.67341e-44 2.68208e-44 2.69575e-44 2.71334e-44 2.73362e-44 2.7553e-44 2.77715e-44 2.79812e-44 2.8174e-44 2.83445e-44 2.84904e-44 2.86121e-44 2.8712e-44 2.87937e-44 2.88613e-44 2.89178e-44 2.89649e-44 2.90014e-44 2.90236e-44 2.90245e-44 2.89942e-44 2.89202e-44 2.87881e-44 2.85826e-44 2.82884e-44 2.78911e-44 2.73782e-44 2.674e-44 2.59705e-44 2.50676e-44 2.40337e-44 2.28757e-44 2.16047e-44 2.02361e-44 1.8789e-44 1.7285e-44 1.57481e-44 1.42031e-44 1.26751e-44 1.11878e-44 9.76321e-45 8.42031e-45 7.17455e-45 6.03732e-45 5.0158e-45 4.11298e-45 3.32797e-45 2.65647e-45 2.09142e-45 1.6237e-45 1.24288e-45 9.37884e-46 6.9762e-46 5.11441e-46 3.69528e-46 2.63118e-46 1.84624e-46 1.27658e-46 8.69827e-47 5.84038e-47 3.8644e-47 2.51981e-47 1.61927e-47 1.02554e-47 6.40169e-48 3.9389e-48 2.38904e-48 1.42848e-48 8.42092e-49 4.89464e-49 2.8054e-49 1.58571e-49 8.83993e-50 4.86086e-50 2.63669e-50 1.41102e-50 7.4504e-51 3.8819e-51 1.99606e-51 1.01301e-51 5.07466e-52 2.5096e-52 1.22533e-52 5.9074e-53 2.81241e-53 1.32232e-53 6.13988e-54 2.81382e-54 1.2683e-54 5.51379e-55 2.05199e-55 0 