# vtk DataFile Version 3.0
Gray-Scott Simulation Output
ASCII
DATASET STRUCTURED_POINTS
DIMENSIONS 256 256 1
SPACING 1.0 1.0 1.0
ORIGIN 0 0 0
POINT_DATA 65536
SCALARS u double
LOOKUP_TABLE default
0 0 0 0 0 0 0 0 0 0 0 0 0 0 0 0 0 0 0 0 0 0 0 0 0 0 0 0 0 0 0 0 0 0 0 0 0 0 0 0 0 0 0 0 0 0 0 0 0 0 0 0 0 0 0 0 0 0 0 0 0 0 0 0 0 0 0 0 0 0 0 0 0 0 0 0 0 0 0 0 0 0 0 0 0 0 0 0 0 0 0 0 0 0 0 0 0 0 0 0 0 0 0 0 0 0 0 0 0 0 0 0 0 0 0 0 0 0 0 0 0 0 0 0 0 0 0 0 0 0 0 0 0 0 0 0 0 0 0 0 0 0 0 0 0 0 0 0 0 0 0 0 0 0 0 0 0 0 0 0 0 0 0 0 0 0 0 0 0 0 0 0 0 0 0 0 0 0 0 0 0 0 0 0 0 0 0 0 0 0 0 0 0 0 0 0 0 0 0 0 0 0 0 0 0 0 0 0 0 0 0 0 0 0 0 0 0 0 0 0 0 0 0 0 0 0 0 0 0 0 0 0 0 0 0 0 0 0 0 0 0 0 0 0 0 0 0 0 0 0 0 0 0 0 0 0 
0 1.50389e-135 1.54167e-134 1.54974e-133 1.54157e-132 1.5174e-131 1.47783e-130 1.42394e-129 1.35725e-128 1.27962e-127 1.19318e-126 1.10024e-125 1.00318e-124 9.04332e-124 8.05906e-123 7.09898e-122 6.18029e-121 5.31703e-120 4.51982e-119 3.79583e-118 3.14897e-117 2.58017e-116 2.08777e-115 1.66806e-114 1.31574e-113 1.02446e-112 7.87258e-112 5.96993e-111 4.46664e-110 3.29671e-109 2.39991e-108 1.72286e-107 1.21946e-106 8.50877e-106 5.85152e-105 3.96543e-104 2.64755e-103 1.74118e-102 1.12771e-101 7.19145e-101 4.51442e-100 2.78906e-99 1.69544e-98 1.01385e-97 5.96247e-97 3.44769e-96 1.95961e-95 1.09454e-94 6.00614e-94 3.23698e-93 1.71292e-92 8.89728e-92 4.53487e-91 2.26736e-90 1.11169e-89 5.34319e-89 2.51666e-88 1.16117e-87 5.24625e-87 2.32017e-86 1.004e-85 4.2492e-85 1.75816e-84 7.1088e-84 2.80751e-83 1.0825e-82 4.07289e-82 1.49462e-81 5.34667e-81 1.86349e-80 6.32445e-80 2.08891e-79 6.71059e-79 2.09547e-78 6.35642e-78 1.87185e-77 5.34776e-77 1.48122e-76 3.97482e-76 1.03266e-75 2.59552e-75 6.30684e-75 1.48047e-74 3.35486e-74 7.33368e-74 1.54537e-73 3.13697e-73 6.13006e-73 1.15246e-72 2.08328e-72 3.61913e-72 6.03964e-72 9.67874e-72 1.48911e-71 2.1993e-71 3.11824e-71 4.24509e-71 5.55117e-71 6.97693e-71 8.43538e-71 9.82253e-71 1.10336e-70 1.19813e-70 1.26124e-70 1.29172e-70 1.29303e-70 1.27222e-70 1.23846e-70 1.20127e-70 1.16899e-70 1.14773e-70 1.14094e-70 1.14951e-70 1.17219e-70 1.20617e-70 1.24767e-70 1.29244e-70 1.33637e-70 1.37595e-70 1.40878e-70 1.43382e-70 1.45139e-70 1.46284e-70 1.47011e-70 1.47512e-70 1.47953e-70 1.48457e-70 1.49119e-70 1.50028e-70 1.51279e-70 1.5297e-70 1.55169e-70 1.57873e-70 1.60971e-70 1.64218e-70 1.6725e-70 1.69638e-70 1.70964e-70 1.70917e-70 1.69357e-70 1.66344e-70 1.62127e-70 1.57083e-70 1.51652e-70 1.46262e-70 1.41279e-70 1.36976e-70 1.33516e-70 1.30944e-70 1.2919e-70 1.28076e-70 1.27323e-70 1.26581e-70 1.25467e-70 1.23616e-70 1.20755e-70 1.16769e-70 1.11756e-70 1.06047e-70 1.00174e-70 9.4795e-71 9.05808e-71 8.8095e-71 8.76916e-71 8.94522e-71 9.3171e-71 9.83884e-71 1.04464e-70 1.10674e-70 1.16322e-70 1.20836e-70 1.23842e-70 1.25198e-70 1.24998e-70 1.23528e-70 1.21205e-70 1.18512e-70 1.15923e-70 1.13845e-70 1.12582e-70 1.12307e-70 1.13069e-70 1.14796e-70 1.1732e-70 1.20388e-70 1.23675e-70 1.26787e-70 1.29275e-70 1.30672e-70 1.30546e-70 1.28572e-70 1.24592e-70 1.1865e-70 1.10979e-70 1.01948e-70 9.19916e-71 8.15418e-71 7.09813e-71 6.0628e-71 5.07394e-71 4.15263e-71 3.3161e-71 2.57767e-71 1.94591e-71 1.42364e-71 1.00756e-71 6.88798e-72 4.54309e-72 2.88853e-72 1.76934e-72 1.04378e-72 5.92936e-73 3.24358e-73 1.70899e-73 8.67526e-74 4.24451e-74 2.00254e-74 9.1154e-75 4.00555e-75 1.70022e-75 6.97566e-76 2.76809e-76 1.06311e-76 3.95427e-77 1.42537e-77 4.98252e-78 1.69008e-78 5.56643e-79 1.78126e-79 5.54143e-80 1.67693e-80 4.93925e-81 1.41677e-81 3.95973e-82 1.07892e-82 2.86746e-83 7.43704e-84 1.88325e-84 4.65826e-85 1.12601e-85 2.66107e-86 6.15101e-87 1.39121e-87 3.08011e-88 6.67781e-89 1.41827e-89 2.95188e-90 6.02285e-91 1.20509e-91 2.36532e-92 4.5557e-93 8.61286e-94 1.59877e-94 2.91226e-95 5.06223e-96 0 
0 1.54122e-134 1.57937e-133 1.58705e-132 1.5781e-131 1.55279e-130 1.51174e-129 1.45609e-128 1.38738e-127 1.30755e-126 1.21878e-125 1.12345e-124 1.02397e-123 9.22748e-123 8.22025e-122 7.2384e-121 6.29944e-120 5.41764e-119 4.60372e-118 3.86495e-117 3.2052e-116 2.62534e-115 2.12359e-114 1.6961e-113 1.3374e-112 1.04097e-111 7.99678e-111 6.06208e-110 4.53408e-109 3.34538e-108 2.43454e-107 1.74715e-106 1.23625e-105 8.62314e-105 5.92828e-104 4.01616e-103 2.68058e-102 1.76235e-101 1.14107e-100 7.27438e-100 4.56509e-99 2.81951e-98 1.71344e-97 1.02431e-96 6.02219e-96 3.48121e-95 1.97809e-94 1.10455e-93 6.05935e-93 3.26475e-92 1.72714e-91 8.9687e-91 4.57005e-90 2.28435e-89 1.11972e-88 5.38044e-88 2.53356e-87 1.16868e-86 5.27889e-86 2.33405e-85 1.00976e-84 4.27263e-84 1.76746e-83 7.14481e-83 2.82112e-82 1.08752e-81 4.09094e-81 1.50094e-80 5.36825e-80 1.87066e-79 6.34762e-79 2.09619e-78 6.73283e-78 2.10207e-77 6.37542e-77 1.87716e-76 5.36216e-76 1.485e-75 3.98443e-75 1.03502e-74 2.60116e-74 6.31984e-74 1.48337e-73 3.36109e-73 7.34661e-73 1.54797e-72 3.14198e-72 6.13942e-72 1.15414e-71 2.08619e-71 3.62401e-71 6.04749e-71 9.69091e-71 1.49093e-70 2.20192e-70 3.12188e-70 4.24998e-70 5.5575e-70 6.98486e-70 8.44501e-70 9.83389e-70 1.10466e-69 1.1996e-69 1.26285e-69 1.29347e-69 1.29489e-69 1.27418e-69 1.24051e-69 1.20338e-69 1.17114e-69 1.14991e-69 1.14313e-69 1.1517e-69 1.17436e-69 1.20832e-69 1.24979e-69 1.29454e-69 1.33845e-69 1.37802e-69 1.41086e-69 1.43591e-69 1.4535e-69 1.46499e-69 1.47229e-69 1.47734e-69 1.48179e-69 1.48686e-69 1.49351e-69 1.50262e-69 1.51514e-69 1.53205e-69 1.55401e-69 1.58102e-69 1.61196e-69 1.64438e-69 1.67465e-69 1.69847e-69 1.7117e-69 1.71121e-69 1.6956e-69 1.66548e-69 1.62334e-69 1.57294e-69 1.51866e-69 1.4648e-69 1.415e-69 1.37201e-69 1.33743e-69 1.31174e-69 1.29422e-69 1.28307e-69 1.27554e-69 1.2681e-69 1.25692e-69 1.23836e-69 1.2097e-69 1.16978e-69 1.11959e-69 1.06244e-69 1.00366e-69 9.49826e-70 9.0765e-70 8.82766e-70 8.78715e-70 8.96312e-70 9.335e-70 9.85683e-70 1.04645e-69 1.10859e-69 1.16511e-69 1.21031e-69 1.24042e-69 1.25404e-69 1.2521e-69 1.23745e-69 1.21427e-69 1.18737e-69 1.1615e-69 1.14073e-69 1.12809e-69 1.12533e-69 1.13292e-69 1.15016e-69 1.17536e-69 1.206e-69 1.23884e-69 1.26992e-69 1.29477e-69 1.30872e-69 1.30745e-69 1.2877e-69 1.2479e-69 1.18849e-69 1.11177e-69 1.02144e-69 9.21827e-70 8.17254e-70 7.11541e-70 6.07867e-70 5.08813e-70 4.16493e-70 3.32643e-70 2.58607e-70 1.95249e-70 1.42862e-70 1.01119e-70 6.91345e-71 4.56028e-71 2.89969e-71 1.77632e-71 1.04797e-71 5.95363e-72 3.2571e-72 1.71624e-72 8.71278e-73 4.26322e-73 2.01154e-73 9.1572e-74 4.0243e-74 1.70836e-74 7.00978e-75 2.78195e-75 1.06856e-75 3.97504e-76 1.43305e-76 5.01004e-77 1.69966e-77 5.59881e-78 1.7919e-78 5.57544e-79 1.68751e-79 4.97126e-80 1.42621e-80 3.98686e-81 1.08652e-81 2.88822e-82 7.49241e-83 1.89766e-83 4.69491e-84 1.13512e-84 2.68318e-85 6.20353e-86 1.40341e-86 3.10786e-87 6.7396e-88 1.43174e-88 2.98066e-89 6.08311e-90 1.21746e-90 2.39022e-91 4.60487e-92 8.70816e-93 1.6169e-93 2.94609e-94 5.12238e-95 0 
0 1.5488e-133 1.58656e-132 1.59368e-131 1.5841e-130 1.5581e-129 1.51635e-128 1.45999e-127 1.39059e-126 1.31009e-125 1.2207e-124 1.12481e-123 1.02484e-122 9.23192e-122 8.22124e-121 7.23667e-120 6.29568e-119 5.41247e-118 4.5977e-117 3.85853e-116 3.19875e-115 2.61913e-114 2.11784e-113 1.69092e-112 1.33286e-111 1.03708e-110 7.96414e-110 6.03529e-109 4.51251e-108 3.32835e-107 2.42135e-106 1.7371e-105 1.22874e-104 8.56794e-104 5.88841e-103 3.98787e-102 2.66084e-101 1.74882e-100 1.13195e-99 7.21403e-99 4.52581e-98 2.7944e-97 1.69766e-96 1.01457e-95 5.96318e-95 3.44608e-94 1.95756e-93 1.09277e-92 5.99303e-92 3.22811e-91 1.70728e-90 8.86317e-90 4.51506e-89 2.25626e-88 1.10567e-87 5.31152e-87 2.50048e-86 1.15313e-85 5.20738e-85 2.30188e-84 9.95612e-84 4.21178e-83 1.74189e-82 7.03991e-82 2.7791e-81 1.07109e-80 4.02834e-80 1.47768e-79 5.28403e-79 1.84097e-78 6.24573e-78 2.06218e-77 6.62248e-77 2.06728e-76 6.26893e-76 1.84553e-75 5.27104e-75 1.45957e-74 3.91569e-74 1.01704e-73 2.55567e-73 6.20864e-73 1.45712e-72 3.3013e-72 7.21528e-72 1.52017e-71 3.08533e-71 6.0283e-71 1.13318e-70 2.04819e-70 3.55781e-70 5.93676e-70 9.5131e-70 1.46352e-69 2.16139e-69 3.06435e-69 4.17158e-69 5.45492e-69 6.85593e-69 8.28918e-69 9.65259e-69 1.08433e-68 1.17756e-68 1.23973e-68 1.26988e-68 1.27139e-68 1.25119e-68 1.21825e-68 1.18192e-68 1.15036e-68 1.12957e-68 1.12294e-68 1.13133e-68 1.15353e-68 1.18681e-68 1.22744e-68 1.27129e-68 1.31431e-68 1.3531e-68 1.38529e-68 1.40986e-68 1.42713e-68 1.43842e-68 1.44562e-68 1.45061e-68 1.45501e-68 1.46002e-68 1.46656e-68 1.47552e-68 1.48781e-68 1.50438e-68 1.52589e-68 1.55234e-68 1.58262e-68 1.61435e-68 1.64397e-68 1.66728e-68 1.68021e-68 1.67971e-68 1.6644e-68 1.63489e-68 1.59359e-68 1.54421e-68 1.49104e-68 1.43827e-68 1.3895e-68 1.34738e-68 1.31351e-68 1.28834e-68 1.27118e-68 1.26026e-68 1.25286e-68 1.24555e-68 1.23455e-68 1.21631e-68 1.18816e-68 1.14896e-68 1.09969e-68 1.04361e-68 9.85929e-69 9.33111e-69 8.9173e-69 8.67308e-69 8.63319e-69 8.80561e-69 9.17019e-69 9.68187e-69 1.02779e-68 1.08873e-68 1.14419e-68 1.18855e-68 1.21812e-68 1.23154e-68 1.2297e-68 1.21539e-68 1.19271e-68 1.16638e-68 1.14103e-68 1.12068e-68 1.10828e-68 1.10556e-68 1.11297e-68 1.12983e-68 1.1545e-68 1.18451e-68 1.21666e-68 1.2471e-68 1.27144e-68 1.28509e-68 1.28383e-68 1.26446e-68 1.22544e-68 1.1672e-68 1.09198e-68 1.00339e-68 9.05696e-69 8.03098e-69 6.99349e-69 5.97564e-69 5.00281e-69 4.09581e-69 3.27175e-69 2.54392e-69 1.92093e-69 1.40569e-69 9.95067e-70 6.80384e-70 4.48837e-70 2.8542e-70 1.74859e-70 1.03169e-70 5.86154e-71 3.20695e-71 1.68994e-71 8.57993e-72 4.19855e-72 1.98119e-72 9.01984e-73 3.96431e-73 1.68306e-73 6.90668e-74 2.74133e-74 1.05308e-74 3.91794e-75 1.41264e-75 4.93937e-76 1.67592e-76 5.52144e-77 1.76741e-77 5.50012e-78 1.66499e-78 4.90577e-79 1.40767e-79 3.93576e-80 1.0728e-80 2.85231e-81 7.40073e-82 1.87483e-82 4.63941e-83 1.12194e-83 2.65263e-84 6.13428e-85 1.38807e-85 3.0746e-86 6.66909e-87 1.41711e-87 2.95094e-88 6.02398e-89 1.20593e-89 2.36822e-90 4.56371e-91 8.63264e-92 1.60331e-92 2.92214e-93 5.08208e-94 0 
0 1.54015e-132 1.57711e-131 1.58359e-130 1.57349e-129 1.54709e-128 1.50508e-127 1.4486e-126 1.37923e-125 1.29891e-124 1.20985e-123 1.1144e-122 1.01499e-121 9.13987e-121 8.13633e-120 7.15936e-119 6.22621e-118 5.35084e-117 4.54374e-116 3.8119e-115 3.15899e-114 2.58567e-113 2.09005e-112 1.66816e-111 1.31447e-110 1.02242e-109 7.8489e-109 5.94595e-108 4.44423e-107 3.27689e-106 2.38312e-105 1.70912e-104 1.20854e-103 8.42441e-103 5.78791e-102 3.91855e-101 2.61376e-100 1.71734e-99 1.11123e-98 7.07974e-98 4.44021e-97 2.74071e-96 1.66454e-95 9.94484e-95 5.84339e-94 3.37587e-93 1.91712e-92 1.06989e-91 5.86591e-91 3.15876e-90 1.67015e-89 8.66805e-89 4.41448e-88 2.20542e-87 1.08047e-86 5.18918e-86 2.44227e-85 1.12601e-84 5.0837e-84 2.24667e-83 9.71511e-83 4.10889e-82 1.69897e-81 6.86494e-81 2.70946e-80 1.04404e-79 3.9258e-79 1.43979e-78 5.14756e-78 1.7931e-77 6.08224e-77 2.00786e-76 6.44697e-76 2.01218e-75 6.10091e-75 1.79581e-74 5.12833e-74 1.41987e-73 3.8087e-73 9.89135e-73 2.48528e-72 6.037e-72 1.4167e-71 3.20943e-71 7.01391e-71 1.47763e-70 2.99878e-70 5.85882e-70 1.10126e-69 1.99039e-69 3.45725e-69 5.76872e-69 9.2435e-69 1.422e-68 2.10002e-68 2.97728e-68 4.053e-68 5.29982e-68 6.66098e-68 8.05353e-68 9.37835e-68 1.05355e-67 1.14419e-67 1.20467e-67 1.23405e-67 1.23564e-67 1.21613e-67 1.18425e-67 1.14905e-67 1.11847e-67 1.09832e-67 1.09189e-67 1.10004e-67 1.12157e-67 1.15384e-67 1.19324e-67 1.23576e-67 1.2775e-67 1.31513e-67 1.34636e-67 1.37022e-67 1.38699e-67 1.39798e-67 1.405e-67 1.40989e-67 1.41419e-67 1.41908e-67 1.42546e-67 1.43417e-67 1.44611e-67 1.46218e-67 1.48304e-67 1.50867e-67 1.53801e-67 1.56875e-67 1.59744e-67 1.62001e-67 1.63252e-67 1.63201e-67 1.61715e-67 1.58853e-67 1.54848e-67 1.5006e-67 1.44904e-67 1.39787e-67 1.35058e-67 1.30974e-67 1.27691e-67 1.25251e-67 1.23587e-67 1.22528e-67 1.21809e-67 1.21097e-67 1.20027e-67 1.18252e-67 1.15514e-67 1.11705e-67 1.06919e-67 1.0147e-67 9.58686e-68 9.07391e-68 8.67202e-68 8.43479e-68 8.3959e-68 8.56312e-68 8.9169e-68 9.41352e-68 9.99207e-68 1.05838e-67 1.11223e-67 1.15533e-67 1.18408e-67 1.19717e-67 1.19543e-67 1.1816e-67 1.15964e-67 1.13412e-67 1.10954e-67 1.0898e-67 1.07777e-67 1.07511e-67 1.08227e-67 1.0986e-67 1.1225e-67 1.15158e-67 1.18275e-67 1.21225e-67 1.23584e-67 1.24906e-67 1.24783e-67 1.22903e-67 1.19117e-67 1.13465e-67 1.06165e-67 9.75669e-68 8.80818e-68 7.81183e-68 6.80396e-68 5.81483e-68 4.8691e-68 3.98704e-68 3.18539e-68 2.47714e-68 1.87075e-68 1.36913e-68 9.69289e-69 6.62822e-69 4.3729e-69 2.78099e-69 1.70386e-69 1.00537e-69 5.71242e-70 3.12559e-70 1.64718e-70 8.36343e-71 4.09292e-71 1.9315e-71 8.79433e-72 3.86553e-72 1.64127e-72 6.73589e-73 2.67382e-73 1.02726e-73 3.82232e-74 1.37834e-74 4.82005e-75 1.63566e-75 5.38956e-76 1.72545e-76 5.37038e-77 1.62598e-77 4.79163e-78 1.37516e-78 3.84554e-79 1.04841e-79 2.78798e-80 7.23524e-81 1.83328e-81 4.53752e-82 1.09754e-82 2.59549e-83 6.00349e-84 1.35878e-84 3.01044e-85 6.53145e-86 1.3882e-86 2.89144e-87 5.90402e-88 1.18222e-88 2.32225e-89 4.47629e-90 8.46954e-91 1.57345e-91 2.86849e-92 4.99008e-93 0 
0 1.5155e-131 1.5513e-130 1.55709e-129 1.54658e-128 1.52008e-127 1.47825e-126 1.42225e-125 1.35365e-124 1.27436e-123 1.18654e-122 1.09254e-121 9.94714e-121 8.95409e-120 7.9681e-119 7.00883e-118 6.09312e-117 5.23461e-116 4.44348e-115 3.72648e-114 3.08712e-113 2.52597e-112 2.04109e-111 1.62852e-110 1.28279e-109 9.97445e-109 7.6546e-108 5.79681e-107 4.33131e-106 3.19257e-105 2.32103e-104 1.66404e-103 1.17629e-102 8.19693e-102 5.62982e-101 3.81031e-100 2.54076e-99 1.66885e-98 1.07952e-97 6.87563e-97 4.31088e-96 2.66008e-95 1.61509e-94 9.64656e-94 5.66647e-93 3.27271e-92 1.85801e-91 1.03661e-90 5.68187e-90 3.05881e-89 1.61687e-88 8.38927e-88 4.27138e-87 2.13338e-86 1.04491e-85 5.01714e-85 2.36072e-84 1.08815e-83 4.9116e-83 2.17011e-82 9.38191e-82 3.96709e-81 1.63998e-80 6.62518e-80 2.61429e-79 1.00717e-78 3.78642e-78 1.38841e-77 4.96296e-77 1.72848e-76 5.86208e-76 1.93486e-75 6.2116e-75 1.93843e-74 5.87644e-74 1.72949e-73 4.9383e-73 1.36709e-72 3.66668e-72 9.52147e-72 2.39209e-71 5.81007e-71 1.36332e-70 3.08825e-70 6.74856e-70 1.42163e-69 2.88494e-69 5.63607e-69 1.05934e-68 1.91453e-68 3.32533e-68 5.5484e-68 8.8902e-68 1.36761e-67 2.01965e-67 2.86329e-67 3.89777e-67 5.09681e-67 6.40583e-67 7.74511e-67 9.01935e-67 1.01325e-66 1.10047e-66 1.15871e-66 1.18706e-66 1.18869e-66 1.17005e-66 1.13951e-66 1.10576e-66 1.07642e-66 1.0571e-66 1.05094e-66 1.05875e-66 1.07942e-66 1.11039e-66 1.14821e-66 1.18904e-66 1.2291e-66 1.26523e-66 1.29524e-66 1.31816e-66 1.33429e-66 1.34488e-66 1.35165e-66 1.35638e-66 1.36055e-66 1.36528e-66 1.37144e-66 1.37982e-66 1.39129e-66 1.40673e-66 1.42674e-66 1.45133e-66 1.47947e-66 1.50894e-66 1.53644e-66 1.55807e-66 1.57006e-66 1.56955e-66 1.55527e-66 1.52779e-66 1.48935e-66 1.44339e-66 1.39391e-66 1.3448e-66 1.29941e-66 1.26023e-66 1.22872e-66 1.2053e-66 1.18934e-66 1.17917e-66 1.17226e-66 1.1654e-66 1.15509e-66 1.138e-66 1.11165e-66 1.07501e-66 1.02898e-66 9.76596e-67 9.22743e-67 8.73435e-67 8.34801e-67 8.1199e-67 8.08238e-67 8.24291e-67 8.58271e-67 9.0598e-67 9.61568e-67 1.01843e-66 1.0702e-66 1.11164e-66 1.13931e-66 1.15193e-66 1.15033e-66 1.13709e-66 1.11604e-66 1.09156e-66 1.06798e-66 1.04902e-66 1.03746e-66 1.03489e-66 1.04174e-66 1.0574e-66 1.08031e-66 1.10821e-66 1.1381e-66 1.16641e-66 1.18904e-66 1.20172e-66 1.20052e-66 1.18246e-66 1.1461e-66 1.09181e-66 1.02169e-66 9.39087e-67 8.47938e-67 7.52165e-67 6.55251e-67 5.60105e-67 4.69098e-67 3.84189e-67 3.06993e-67 2.38771e-67 1.80345e-67 1.32004e-67 9.34634e-68 6.39184e-68 4.21731e-68 2.68225e-68 1.64349e-68 9.69815e-69 5.51075e-69 3.01544e-69 1.58924e-69 8.06978e-70 3.94949e-70 1.86395e-70 8.48744e-71 3.73095e-71 1.58427e-71 6.50254e-72 2.58145e-72 9.91879e-73 3.69107e-73 1.33117e-73 4.65567e-74 1.58008e-74 5.20715e-75 1.66729e-75 5.19013e-76 1.57165e-76 4.63228e-77 1.32965e-77 3.71893e-78 1.01407e-78 2.69717e-79 7.00093e-80 1.77426e-80 4.39233e-81 1.06264e-81 2.5135e-82 5.81512e-83 1.31644e-83 2.9173e-84 6.33086e-85 1.34589e-85 2.80399e-86 5.72685e-87 1.14703e-87 2.2537e-88 4.34529e-89 8.22384e-90 1.52821e-90 2.78677e-91 4.84916e-92 0 
0 1.47548e-130 1.50978e-129 1.51486e-128 1.50407e-127 1.47775e-126 1.43656e-125 1.38163e-124 1.31451e-123 1.23706e-122 1.1514e-121 1.05979e-120 9.64553e-120 8.67949e-119 7.72097e-118 6.78904e-117 5.89996e-116 5.06688e-115 4.29959e-114 3.60455e-113 2.98508e-112 2.44163e-111 1.97226e-110 1.57306e-109 1.23869e-108 9.62826e-108 7.38644e-107 5.59187e-106 4.17679e-105 3.07767e-104 2.23676e-103 1.60311e-102 1.13285e-101 7.89168e-101 5.41845e-100 3.6661e-99 2.44383e-98 1.60469e-97 1.0377e-96 6.60723e-96 4.14135e-95 2.55471e-94 1.55066e-93 9.259e-93 5.43724e-92 3.13943e-91 1.78184e-90 9.93835e-90 5.44591e-89 2.93099e-88 1.54889e-87 8.03444e-87 4.08966e-86 2.0421e-85 9.99952e-85 4.80008e-84 2.25804e-83 1.04057e-82 4.69577e-82 2.07428e-81 8.9656e-81 3.79023e-80 1.56653e-79 6.32718e-79 2.4962e-78 9.61483e-78 3.61399e-77 1.32494e-76 4.73524e-76 1.64889e-75 5.59122e-75 1.84517e-74 5.92276e-74 1.84802e-73 5.60158e-73 1.64838e-72 4.70611e-72 1.30265e-71 3.49348e-71 9.07075e-71 2.27863e-70 5.53399e-70 1.29843e-69 2.94103e-69 6.42638e-69 1.35367e-68 2.74687e-68 5.36605e-68 1.00854e-67 1.82264e-67 3.16561e-67 5.28173e-67 8.46267e-67 1.30181e-66 1.92244e-66 2.72544e-66 3.71007e-66 4.85135e-66 6.09734e-66 7.3722e-66 8.58525e-66 9.64513e-66 1.04758e-65 1.10309e-65 1.13017e-65 1.13183e-65 1.1142e-65 1.08523e-65 1.0532e-65 1.02536e-65 1.00701e-65 1.00116e-65 1.00859e-65 1.02822e-65 1.05764e-65 1.09357e-65 1.13236e-65 1.17043e-65 1.20476e-65 1.23328e-65 1.25509e-65 1.27044e-65 1.28053e-65 1.287e-65 1.29153e-65 1.29553e-65 1.30006e-65 1.30594e-65 1.31393e-65 1.32484e-65 1.33951e-65 1.35851e-65 1.38185e-65 1.40856e-65 1.43653e-65 1.46262e-65 1.48314e-65 1.4945e-65 1.494e-65 1.48042e-65 1.45431e-65 1.41779e-65 1.37413e-65 1.32713e-65 1.28049e-65 1.23738e-65 1.20016e-65 1.17023e-65 1.148e-65 1.13284e-65 1.12318e-65 1.1166e-65 1.11006e-65 1.10023e-65 1.08394e-65 1.05885e-65 1.02396e-65 9.80148e-66 9.30302e-66 8.79064e-66 8.32152e-66 7.95395e-66 7.73687e-66 7.70104e-66 7.85356e-66 8.17657e-66 8.6302e-66 9.15881e-66 9.69965e-66 1.01922e-65 1.05865e-65 1.08501e-65 1.09707e-65 1.09559e-65 1.08306e-65 1.06309e-65 1.03985e-65 1.01745e-65 9.99438e-66 9.88439e-66 9.85979e-66 9.92472e-66 1.00732e-65 1.02907e-65 1.05555e-65 1.08394e-65 1.11081e-65 1.1323e-65 1.14434e-65 1.14318e-65 1.12601e-65 1.09145e-65 1.03984e-65 9.73175e-66 8.94629e-66 8.07938e-66 7.1682e-66 6.24587e-66 5.34001e-66 4.47324e-66 3.66423e-66 2.92847e-66 2.27803e-66 1.72085e-66 1.25973e-66 8.92027e-67 6.10103e-67 4.02578e-67 2.56063e-67 1.56908e-67 9.25966e-68 5.26192e-68 2.87946e-68 1.51767e-68 7.70685e-69 3.77211e-69 1.78036e-69 8.1074e-70 3.56416e-70 1.51357e-70 6.21292e-71 2.4667e-71 9.47882e-72 3.52772e-72 1.2724e-72 4.45065e-73 1.51069e-73 4.97911e-74 1.5945e-74 4.96424e-75 1.50347e-75 4.43203e-76 1.27237e-76 3.55934e-77 9.70725e-78 2.58235e-78 6.70414e-79 1.69937e-79 4.20777e-80 1.0182e-80 2.40888e-81 5.57426e-82 1.26219e-82 2.79771e-83 6.07272e-84 1.29131e-84 2.69093e-85 5.49727e-86 1.10132e-86 2.16443e-87 4.17424e-88 7.90216e-89 1.46882e-89 2.67918e-90 4.66314e-91 0 
0 1.42118e-129 1.45369e-128 1.45804e-127 1.44712e-126 1.42127e-125 1.38115e-124 1.32786e-123 1.26289e-122 1.18805e-121 1.10538e-120 1.01707e-119 9.25338e-119 8.32363e-118 7.40178e-117 6.50607e-116 5.65206e-115 4.85228e-114 4.11605e-113 3.44948e-112 2.85567e-111 2.33498e-110 1.88547e-109 1.50333e-108 1.18338e-107 9.19522e-107 7.05187e-106 5.33681e-105 3.98496e-104 2.93536e-103 2.13264e-102 1.52799e-101 1.07942e-100 7.5171e-100 5.15963e-99 3.48989e-98 2.32565e-97 1.52662e-96 9.86911e-96 6.28197e-95 3.93631e-94 2.4275e-93 1.47302e-92 8.79285e-92 5.16202e-91 2.97968e-90 1.6907e-89 9.42741e-89 5.16453e-88 2.77881e-87 1.46808e-86 7.61329e-86 3.8743e-85 1.93407e-84 9.46823e-84 4.54395e-83 2.13704e-82 9.84584e-82 4.4421e-81 1.96179e-80 8.47754e-80 3.58314e-79 1.48063e-78 5.97903e-78 2.35839e-77 9.08228e-77 3.41319e-76 1.2511e-75 4.47057e-75 1.55647e-74 5.277e-74 1.74121e-73 5.58823e-73 1.7434e-72 5.28376e-72 1.55466e-71 4.43802e-71 1.22831e-70 3.29374e-70 8.5513e-70 2.14795e-69 5.21616e-69 1.22376e-68 2.7717e-68 6.056e-68 1.27558e-67 2.58826e-67 5.05596e-67 9.50217e-67 1.71718e-66 2.98235e-66 4.97582e-66 7.97233e-66 1.22636e-65 1.81099e-65 2.56739e-65 3.49491e-65 4.56998e-65 5.74373e-65 6.94472e-65 8.08759e-65 9.08631e-65 9.86933e-65 1.03928e-64 1.06488e-64 1.06654e-64 1.05004e-64 1.02286e-64 9.92783e-65 9.66625e-65 9.49386e-65 9.43893e-65 9.50877e-65 9.69337e-65 9.96996e-65 1.03078e-64 1.06724e-64 1.10304e-64 1.13533e-64 1.16216e-64 1.18268e-64 1.19714e-64 1.20666e-64 1.21277e-64 1.21707e-64 1.22086e-64 1.22515e-64 1.23071e-64 1.23824e-64 1.24851e-64 1.26231e-64 1.28017e-64 1.3021e-64 1.32718e-64 1.35344e-64 1.37795e-64 1.39721e-64 1.40786e-64 1.40737e-64 1.39459e-64 1.37004e-64 1.33571e-64 1.29467e-64 1.25049e-64 1.20664e-64 1.16612e-64 1.13114e-64 1.10301e-64 1.08212e-64 1.06787e-64 1.05879e-64 1.0526e-64 1.04643e-64 1.03715e-64 1.02179e-64 9.98135e-65 9.65263e-65 9.23997e-65 8.77056e-65 8.28811e-65 7.84641e-65 7.50032e-65 7.29588e-65 7.26202e-65 7.40542e-65 7.7093e-65 8.13614e-65 8.63361e-65 9.14269e-65 9.60637e-65 9.97782e-65 1.02263e-64 1.03402e-64 1.03268e-64 1.02094e-64 1.00219e-64 9.80357e-65 9.59304e-65 9.42367e-65 9.32014e-65 9.29685e-65 9.35769e-65 9.49707e-65 9.70137e-65 9.95014e-65 1.02169e-64 1.04694e-64 1.06713e-64 1.07844e-64 1.07734e-64 1.06118e-64 1.02866e-64 9.80113e-65 9.17393e-65 8.4348e-65 7.61882e-65 6.76092e-65 5.8922e-65 5.03868e-65 4.22166e-65 3.45881e-65 2.76477e-65 2.15103e-65 1.62513e-65 1.1898e-65 8.42605e-66 5.76355e-66 3.80341e-66 2.41937e-66 1.48262e-66 8.74999e-67 4.97259e-67 2.72129e-67 1.43439e-67 7.28435e-68 3.56553e-68 1.68297e-68 7.6644e-69 3.36965e-69 1.43108e-69 5.87478e-70 2.33266e-70 8.96454e-71 3.33665e-71 1.20361e-71 4.21051e-72 1.42935e-72 4.71161e-73 1.50903e-73 4.6988e-74 1.42329e-74 4.19628e-75 1.20489e-75 3.3711e-76 9.19541e-77 2.44662e-77 6.35292e-78 1.61064e-78 3.98885e-79 9.65413e-80 2.28447e-80 5.28748e-81 1.19751e-81 2.65492e-82 5.76409e-83 1.22596e-83 2.55535e-84 5.22154e-85 1.04634e-85 2.05688e-86 3.96782e-87 7.5133e-88 1.3969e-88 2.54868e-89 4.4371e-90 0 
0 1.35413e-128 1.3846e-127 1.38823e-126 1.37733e-125 1.35223e-124 1.31358e-123 1.26243e-122 1.20023e-121 1.12869e-120 1.04977e-119 9.65559e-119 8.78162e-118 7.89646e-117 7.01944e-116 6.16782e-115 5.35633e-114 4.59679e-113 3.89797e-112 3.26559e-111 2.7025e-110 2.20899e-109 1.78312e-108 1.42124e-107 1.11839e-106 8.68732e-106 6.66015e-105 5.0387e-104 3.76113e-103 2.76958e-102 2.01155e-101 1.44076e-100 1.01748e-99 7.0835e-99 4.86049e-98 3.28654e-97 2.18947e-96 1.43678e-95 9.28556e-95 5.90875e-94 3.70135e-93 2.28194e-92 1.38429e-91 8.26084e-91 4.84833e-90 2.79782e-89 1.58707e-88 8.84719e-88 4.84538e-87 2.6064e-86 1.37663e-85 7.13724e-85 3.63113e-84 1.81223e-83 8.86962e-83 4.25565e-82 2.00099e-81 9.21691e-81 4.15742e-80 1.83566e-79 7.93082e-79 3.35137e-78 1.38458e-77 5.59006e-77 2.20454e-76 8.48824e-76 3.18937e-75 1.16886e-74 4.17601e-74 1.45369e-73 4.92777e-73 1.62573e-72 5.21691e-72 1.62734e-71 4.93139e-71 1.45081e-70 4.14109e-70 1.14601e-69 3.07275e-69 7.97682e-69 2.00348e-68 4.86494e-68 1.14128e-67 2.58472e-67 5.64713e-67 1.18939e-66 2.41327e-66 4.71394e-66 8.85905e-66 1.6009e-65 2.78033e-65 4.63866e-65 7.43198e-65 1.14322e-64 1.68819e-64 2.39328e-64 3.25788e-64 4.26004e-64 5.3542e-64 6.47382e-64 7.53935e-64 8.47064e-64 9.20102e-64 9.68967e-64 9.92908e-64 9.94554e-64 9.79272e-64 9.54032e-64 9.2608e-64 9.01763e-64 8.85736e-64 8.8063e-64 8.87129e-64 9.04302e-64 9.30032e-64 9.61457e-64 9.95383e-64 1.02869e-63 1.05874e-63 1.08371e-63 1.10282e-63 1.1163e-63 1.12518e-63 1.13091e-63 1.13493e-63 1.1385e-63 1.14252e-63 1.14771e-63 1.15474e-63 1.16431e-63 1.17714e-63 1.19376e-63 1.21414e-63 1.23745e-63 1.26186e-63 1.28462e-63 1.30251e-63 1.3124e-63 1.31192e-63 1.30003e-63 1.27718e-63 1.24525e-63 1.20707e-63 1.16597e-63 1.12519e-63 1.0875e-63 1.05497e-63 1.02882e-63 1.00938e-63 9.96135e-64 9.87686e-64 9.81919e-64 9.76163e-64 9.67496e-64 9.53165e-64 9.31101e-64 9.00453e-64 8.61991e-64 8.18249e-64 7.73296e-64 7.32144e-64 6.99898e-64 6.80845e-64 6.77679e-64 6.91021e-64 7.1931e-64 7.59052e-64 8.0538e-64 8.52796e-64 8.95995e-64 9.30614e-64 9.53791e-64 9.64442e-64 9.63245e-64 9.52353e-64 9.34937e-64 9.14641e-64 8.9506e-64 8.79299e-64 8.69657e-64 8.67475e-64 8.73116e-64 8.86063e-64 9.0505e-64 9.28176e-64 9.52974e-64 9.76456e-64 9.95227e-64 1.00574e-63 1.00471e-63 9.8966e-64 9.59389e-64 9.14194e-64 8.55802e-64 7.86975e-64 7.10974e-64 6.31043e-64 5.50075e-64 4.70493e-64 3.94284e-64 3.23099e-64 2.58312e-64 2.01002e-64 1.51881e-64 1.1121e-64 7.87662e-65 5.38824e-65 3.55603e-65 2.26218e-65 1.38638e-65 8.1825e-66 4.65035e-66 2.54508e-66 1.34157e-66 6.81338e-67 3.33519e-67 1.57433e-67 7.17011e-68 3.15254e-68 1.33897e-68 5.49705e-69 2.18285e-69 8.38957e-70 3.12293e-70 1.12663e-70 3.94162e-71 1.33822e-71 4.41174e-72 1.41316e-72 4.40087e-73 1.33323e-73 3.93133e-74 1.12898e-74 3.15923e-75 8.61889e-76 2.29362e-76 5.95668e-77 1.51046e-77 3.74144e-78 9.05708e-79 2.14362e-79 4.96248e-80 1.12414e-80 2.49279e-81 5.41328e-82 1.15161e-82 2.40092e-83 4.90714e-84 9.83569e-85 1.93396e-85 3.73163e-86 7.06785e-87 1.31442e-87 2.3988e-88 4.17722e-89 0 
0 1.2762e-127 1.30444e-126 1.30738e-125 1.29664e-124 1.27255e-123 1.23572e-122 1.18718e-121 1.12827e-120 1.06064e-119 9.8613e-119 9.06696e-118 8.24333e-117 7.40981e-116 6.58452e-115 5.78363e-114 5.02093e-113 4.30746e-112 3.65136e-111 3.05793e-110 2.52979e-109 2.06711e-108 1.66803e-107 1.32906e-106 1.0455e-105 8.11846e-105 6.22198e-104 4.70566e-103 3.51139e-102 2.58484e-101 1.87677e-100 1.3438e-99 9.48704e-99 6.60264e-98 4.52913e-97 3.06154e-96 2.03895e-95 1.33761e-94 8.64202e-94 5.49762e-93 3.4428e-92 2.12192e-91 1.28685e-90 7.6772e-90 4.50452e-89 2.59871e-88 1.47372e-87 8.21311e-87 4.49692e-86 2.41833e-85 1.27697e-84 6.61888e-84 3.36658e-83 1.67979e-82 8.21945e-82 3.94278e-81 1.85346e-80 8.53543e-80 3.84919e-79 1.6992e-78 7.33974e-78 3.10097e-77 1.28088e-76 5.17039e-76 2.03866e-75 7.84814e-75 2.94835e-74 1.08035e-73 3.85917e-73 1.34319e-72 4.55253e-72 1.50173e-71 4.81834e-71 1.50282e-70 4.55352e-70 1.33949e-69 3.82294e-69 1.05786e-68 2.83614e-68 7.36196e-68 1.84891e-67 4.48928e-67 1.05309e-66 2.38484e-66 5.21016e-66 1.09731e-65 2.22634e-65 4.34865e-65 8.17228e-65 1.47676e-64 2.56467e-64 4.27877e-64 6.85526e-64 1.05449e-63 1.55715e-63 2.2075e-63 3.00497e-63 3.92933e-63 4.93859e-63 5.97137e-63 6.95435e-63 7.81363e-63 8.48774e-63 8.93906e-63 9.16065e-63 9.1767e-63 9.03669e-63 8.80479e-63 8.54777e-63 8.32411e-63 8.17667e-63 8.12971e-63 8.18954e-63 8.34761e-63 8.58443e-63 8.87369e-63 9.18598e-63 9.49262e-63 9.76931e-63 9.99931e-63 1.01754e-62 1.02997e-62 1.03817e-62 1.04347e-62 1.0472e-62 1.05051e-62 1.05424e-62 1.05905e-62 1.06553e-62 1.07436e-62 1.08617e-62 1.10146e-62 1.12021e-62 1.14164e-62 1.16408e-62 1.18501e-62 1.20145e-62 1.21053e-62 1.21007e-62 1.19912e-62 1.17808e-62 1.14869e-62 1.11355e-62 1.07573e-62 1.0382e-62 1.00352e-62 9.73578e-63 9.49514e-63 9.31636e-63 9.19446e-63 9.1167e-63 9.06354e-63 9.01039e-63 8.93032e-63 8.79799e-63 8.59438e-63 8.31166e-63 7.95696e-63 7.55364e-63 7.13922e-63 6.75986e-63 6.46259e-63 6.2869e-63 6.25761e-63 6.38043e-63 6.64099e-63 7.00713e-63 7.434e-63 7.87098e-63 8.26919e-63 8.58845e-63 8.80235e-63 8.90089e-63 8.8903e-63 8.79038e-63 8.6303e-63 8.44361e-63 8.26342e-63 8.11831e-63 8.02945e-63 8.00922e-63 8.06097e-63 8.17996e-63 8.35456e-63 8.56727e-63 8.79539e-63 9.01142e-63 9.1841e-63 9.28075e-63 9.27118e-63 9.13256e-63 8.85374e-63 8.43746e-63 7.89956e-63 7.26543e-63 6.565e-63 5.82813e-63 5.08143e-63 4.34721e-63 3.64383e-63 2.98655e-63 2.38812e-63 1.85859e-63 1.40459e-63 1.02859e-63 7.28593e-64 4.98463e-64 3.28993e-64 2.09304e-64 1.2828e-64 7.57163e-65 4.3034e-65 2.35531e-65 1.2416e-65 6.30598e-66 3.08696e-66 1.45724e-66 6.63717e-67 2.91839e-67 1.2396e-67 5.08944e-68 2.02114e-68 7.76867e-69 2.89206e-69 1.04343e-69 3.65092e-70 1.23965e-70 4.08725e-71 1.30938e-71 4.07818e-72 1.23563e-72 3.64405e-73 1.04663e-73 2.92924e-74 7.99271e-75 2.12733e-75 5.52576e-76 1.40144e-76 3.47202e-77 8.40647e-78 1.99002e-78 4.60782e-79 1.04401e-79 2.3156e-80 5.02957e-81 1.07022e-81 2.23173e-82 4.56238e-83 9.14682e-84 1.79894e-84 3.47195e-85 6.57764e-86 1.22356e-86 2.23356e-87 3.89042e-88 0 