# vtk DataFile Version 3.0
Gray-Scott Simulation Output
ASCII
DATASET STRUCTURED_POINTS
DIMENSIONS 256 256 1
SPACING 1.0 1.0 1.0
ORIGIN 0 0 0
POINT_DATA 65536
SCALARS u double
LOOKUP_TABLE default
0 0 0 0 0 0 0 0 0 0 0 0 0 0 0 0 0 0 0 0 0 0 0 0 0 0 0 0 0 0 0 0 0 0 0 0 0 0 0 0 0 0 0 0 0 0 0 0 0 0 0 0 0 0 0 0 0 0 0 0 0 0 0 0 0 0 0 0 0 0 0 0 0 0 0 0 0 0 0 0 0 0 0 0 0 0 0 0 0 0 0 0 0 0 0 0 0 0 0 0 0 0 0 0 0 0 0 0 0 0 0 0 0 0 0 0 0 0 0 0 0 0 0 0 0 0 0 0 0 0 0 0 0 0 0 0 0 0 0 0 0 0 0 0 0 0 0 0 0 0 0 0 0 0 0 0 0 0 0 0 0 0 0 0 0 0 0 0 0 0 0 0 0 0 0 0 0 0 0 0 0 0 0 0 0 0 0 0 0 0 0 0 0 0 0 0 0 0 0 0 0 0 0 0 0 0 0 0 0 0 0 0 0 0 0 0 0 0 0 0 0 0 0 0 0 0 0 0 0 0 0 0 0 0 0 0 0 0 0 0 0 0 0 0 0 0 0 0 0 0 0 0 0 0 0 0 
0 5.62302e-90 2.64554e-89 1.17915e-88 5.19644e-88 2.26867e-87 9.81242e-87 4.20424e-86 1.78431e-85 7.50059e-85 3.12265e-84 1.28743e-83 5.256e-83 2.12464e-82 8.50312e-82 3.36895e-81 1.32128e-80 5.12916e-80 1.97063e-79 7.4926e-79 2.81896e-78 1.04938e-77 3.86475e-77 1.40804e-76 5.07421e-76 1.80859e-75 6.37504e-75 2.22205e-74 7.65784e-74 2.60912e-73 8.7876e-73 2.9254e-72 9.62482e-72 3.12925e-71 1.00526e-70 3.19049e-70 1.00029e-69 3.09759e-69 9.4734e-69 2.86097e-68 8.53086e-68 2.51123e-67 7.29687e-67 2.0926e-66 5.92211e-66 1.65366e-65 4.55552e-65 1.2379e-64 3.31766e-64 8.76818e-64 2.28484e-63 5.86954e-63 1.48625e-62 3.70893e-62 9.12033e-62 2.20957e-61 5.27317e-61 1.23946e-60 2.86894e-60 6.53832e-60 1.46689e-59 3.23922e-59 7.03924e-59 1.50515e-58 3.16617e-58 6.55105e-58 1.33303e-57 2.66717e-57 5.24651e-57 1.01444e-56 1.92775e-56 3.59974e-56 6.60421e-56 1.19023e-55 2.10688e-55 3.66253e-55 6.25164e-55 1.04766e-54 1.72347e-54 2.78286e-54 4.40997e-54 6.85793e-54 1.04646e-53 1.56673e-53 2.30132e-53 3.31628e-53 4.68817e-53 6.50177e-53 8.84587e-53 1.18072e-52 1.54626e-52 1.98697e-52 2.50572e-52 3.10162e-52 3.7693e-52 4.49859e-52 5.27464e-52 6.07854e-52 6.88849e-52 7.68139e-52 8.43469e-52 9.12828e-52 9.74621e-52 1.0278e-51 1.07195e-51 1.10726e-51 1.13451e-51 1.1549e-51 1.16995e-51 1.18128e-51 1.19047e-51 1.19891e-51 1.2077e-51 1.21758e-51 1.22894e-51 1.24184e-51 1.25609e-51 1.27133e-51 1.2871e-51 1.30295e-51 1.31846e-51 1.33336e-51 1.34747e-51 1.36075e-51 1.37327e-51 1.38518e-51 1.39663e-51 1.40781e-51 1.4188e-51 1.42963e-51 1.4402e-51 1.45029e-51 1.45956e-51 1.46757e-51 1.47381e-51 1.47778e-51 1.479e-51 1.4771e-51 1.47185e-51 1.4632e-51 1.45129e-51 1.43647e-51 1.4192e-51 1.40006e-51 1.37967e-51 1.35859e-51 1.33733e-51 1.31621e-51 1.29541e-51 1.27494e-51 1.25469e-51 1.23442e-51 1.21392e-51 1.19302e-51 1.17166e-51 1.15e-51 1.12838e-51 1.10739e-51 1.08776e-51 1.07035e-51 1.056e-51 1.0455e-51 1.03939e-51 1.03798e-51 1.04123e-51 1.04873e-51 1.0598e-51 1.07349e-51 1.08869e-51 1.10428e-51 1.11921e-51 1.13263e-51 1.14394e-51 1.15285e-51 1.15936e-51 1.16376e-51 1.16651e-51 1.1682e-51 1.16943e-51 1.17069e-51 1.17233e-51 1.17443e-51 1.17682e-51 1.17904e-51 1.18038e-51 1.17992e-51 1.1766e-51 1.16931e-51 1.15697e-51 1.13865e-51 1.11359e-51 1.08133e-51 1.0417e-51 9.94881e-52 9.41359e-52 8.8193e-52 8.17644e-52 7.49745e-52 6.79612e-52 6.0868e-52 5.38376e-52 4.70045e-52 4.04895e-52 3.43945e-52 2.8799e-52 2.37583e-52 1.93026e-52 1.54385e-52 1.21511e-52 9.40806e-53 7.16342e-53 5.36234e-53 3.94545e-53 2.85268e-53 2.02651e-53 1.41422e-53 9.69416e-54 6.52664e-54 4.3155e-54 2.80232e-54 1.78708e-54 1.11923e-54 6.88412e-55 4.15869e-55 2.46756e-55 1.43819e-55 8.23449e-56 4.63206e-56 2.56021e-56 1.39056e-56 7.42283e-57 3.89469e-57 2.00889e-57 1.01878e-57 5.08056e-58 2.49177e-58 1.20209e-58 5.70507e-59 2.66409e-59 1.22425e-59 5.53714e-60 2.46528e-60 1.08064e-60 4.66435e-61 1.98276e-61 8.30198e-62 3.42447e-62 1.39178e-62 5.57414e-63 2.20029e-63 8.56114e-64 3.28332e-64 1.23954e-64 4.55559e-65 1.4833e-65 0 
0 2.64252e-89 1.2433e-88 5.5417e-88 2.44229e-87 1.06631e-86 4.61218e-86 1.97623e-85 8.38775e-85 3.5261e-84 1.46808e-83 6.05308e-83 2.47138e-82 9.99083e-82 3.99878e-81 1.58445e-80 6.21468e-80 2.41273e-79 9.2706e-79 3.52516e-78 1.32642e-77 4.93822e-77 1.8189e-76 6.62758e-76 2.3887e-75 8.51509e-75 3.00186e-74 1.04646e-73 3.60693e-73 1.22911e-72 4.14032e-72 1.37854e-71 4.53626e-71 1.47509e-70 4.73953e-70 1.5045e-69 4.71781e-69 1.46125e-68 4.46985e-68 1.35017e-67 4.02679e-67 1.18562e-66 3.44581e-66 9.88415e-66 2.79789e-65 7.81454e-65 2.15327e-64 5.85268e-64 1.56895e-63 4.14761e-63 1.08108e-62 2.77793e-62 7.03599e-62 1.75631e-61 4.32e-61 1.0469e-60 2.49914e-60 5.87592e-60 1.36047e-59 3.10143e-59 6.96016e-59 1.53742e-58 3.34199e-58 7.14808e-58 1.50408e-57 3.11298e-57 6.33627e-57 1.26815e-56 2.49525e-56 4.82609e-56 9.17362e-56 1.71349e-55 3.14448e-55 5.66858e-55 1.00368e-54 1.74519e-54 2.9796e-54 4.9944e-54 8.21789e-54 1.3272e-53 2.10361e-53 3.27191e-53 4.99348e-53 7.47719e-53 1.09845e-52 1.58308e-52 2.2382e-52 3.10429e-52 4.22376e-52 5.638e-52 7.38366e-52 9.48818e-52 1.19652e-51 1.48103e-51 1.79976e-51 2.14784e-51 2.51815e-51 2.90165e-51 3.28792e-51 3.66591e-51 4.02486e-51 4.35517e-51 4.64926e-51 4.90215e-51 5.11185e-51 5.27934e-51 5.40832e-51 5.50461e-51 5.57543e-51 5.62856e-51 5.67154e-51 5.711e-51 5.75215e-51 5.79854e-51 5.85204e-51 5.91294e-51 5.98032e-51 6.05242e-51 6.12709e-51 6.20213e-51 6.27564e-51 6.34623e-51 6.41309e-51 6.47604e-51 6.53538e-51 6.59179e-51 6.64608e-51 6.69902e-51 6.75112e-51 6.80245e-51 6.85257e-51 6.90041e-51 6.94437e-51 6.98235e-51 7.01198e-51 7.03081e-51 7.03662e-51 7.02761e-51 7.00272e-51 6.96172e-51 6.9053e-51 6.83502e-51 6.75314e-51 6.66242e-51 6.56574e-51 6.46586e-51 6.36507e-51 6.26499e-51 6.16646e-51 6.06951e-51 5.97354e-51 5.87754e-51 5.78039e-51 5.6813e-51 5.58004e-51 5.4773e-51 5.37477e-51 5.27516e-51 5.182e-51 5.09933e-51 5.03122e-51 4.98133e-51 4.95236e-51 4.94568e-51 4.9611e-51 4.99677e-51 5.04937e-51 5.11438e-51 5.18659e-51 5.26063e-51 5.33154e-51 5.39525e-51 5.44892e-51 5.49117e-51 5.52204e-51 5.54285e-51 5.55586e-51 5.56384e-51 5.56961e-51 5.57558e-51 5.58334e-51 5.59333e-51 5.60474e-51 5.61538e-51 5.62187e-51 5.61984e-51 5.60425e-51 5.56982e-51 5.51145e-51 5.42461e-51 5.30578e-51 5.1527e-51 4.96458e-51 4.74221e-51 4.4879e-51 4.20541e-51 3.8997e-51 3.57667e-51 3.24287e-51 2.90512e-51 2.57021e-51 2.24456e-51 1.93393e-51 1.64321e-51 1.3762e-51 1.13557e-51 9.22787e-52 7.38192e-52 5.81102e-52 4.49985e-52 3.42666e-52 2.56536e-52 1.88765e-52 1.3649e-52 9.69636e-53 6.76675e-53 4.63838e-53 3.1227e-53 2.06465e-53 1.3406e-53 8.54845e-54 5.35318e-54 3.2922e-54 1.98853e-54 1.17971e-54 6.87463e-55 3.93543e-55 2.21333e-55 1.22309e-55 6.64174e-56 3.5446e-56 1.8594e-56 9.58861e-57 4.86159e-57 2.42384e-57 1.18848e-57 5.7321e-58 2.71976e-58 1.26973e-58 5.83338e-59 2.63771e-59 1.17408e-59 5.14519e-60 2.22027e-60 9.43572e-61 3.94984e-61 1.62886e-61 6.61843e-62 2.65008e-62 1.04582e-62 4.06825e-63 1.55987e-63 5.88761e-64 2.16338e-64 7.04276e-65 0 
0 1.1763e-88 5.53464e-88 2.46703e-87 1.0873e-86 4.74739e-86 2.05354e-85 8.79953e-85 3.73503e-84 1.57026e-83 6.53818e-83 2.69598e-82 1.10081e-81 4.45054e-81 1.78146e-80 7.05943e-80 2.76919e-79 1.07519e-78 4.13175e-78 1.57128e-77 5.91299e-77 2.20167e-76 8.1105e-76 2.95564e-75 1.06542e-74 3.79849e-74 1.3393e-73 4.66959e-73 1.60978e-72 5.48646e-72 1.84847e-71 6.15567e-71 2.02598e-70 6.58934e-70 2.1176e-69 6.72343e-69 2.10878e-68 6.53296e-68 1.99883e-67 6.0391e-67 1.80154e-66 5.30563e-66 1.54238e-65 4.42537e-65 1.25301e-64 3.50061e-64 9.64844e-64 2.62322e-63 7.03415e-63 1.86006e-62 4.84968e-62 1.24654e-61 3.15823e-61 7.88597e-61 1.94032e-60 4.7036e-60 1.1232e-59 2.6417e-59 6.11842e-59 1.39526e-58 3.13225e-58 6.92106e-58 1.50498e-57 3.22004e-57 6.77777e-57 1.40326e-56 2.85719e-56 5.7203e-56 1.12591e-55 2.17834e-55 4.14199e-55 7.73901e-55 1.42064e-54 2.56177e-54 4.53718e-54 7.89143e-54 1.34769e-53 2.25957e-53 3.71887e-53 6.00743e-53 9.52384e-53 1.48161e-52 2.26161e-52 3.38709e-52 4.97659e-52 7.17322e-52 1.01428e-51 1.4069e-51 1.91439e-51 2.55551e-51 3.34685e-51 4.30082e-51 5.42353e-51 6.7129e-51 8.15713e-51 9.73402e-51 1.14112e-50 1.31476e-50 1.48958e-50 1.66059e-50 1.8229e-50 1.97216e-50 2.10495e-50 2.21902e-50 2.3135e-50 2.38883e-50 2.44671e-50 2.4898e-50 2.52136e-50 2.54494e-50 2.56395e-50 2.58139e-50 2.59963e-50 2.62027e-50 2.64414e-50 2.67138e-50 2.70158e-50 2.73393e-50 2.76745e-50 2.80116e-50 2.83418e-50 2.8659e-50 2.89595e-50 2.92424e-50 2.95091e-50 2.97626e-50 3.00066e-50 3.02445e-50 3.04786e-50 3.07094e-50 3.09347e-50 3.11498e-50 3.13475e-50 3.15184e-50 3.16517e-50 3.17365e-50 3.17627e-50 3.17224e-50 3.16105e-50 3.14262e-50 3.11725e-50 3.08565e-50 3.04883e-50 3.00804e-50 2.96458e-50 2.91968e-50 2.87438e-50 2.82941e-50 2.78514e-50 2.74159e-50 2.69847e-50 2.65534e-50 2.61168e-50 2.56714e-50 2.52161e-50 2.47539e-50 2.42926e-50 2.38442e-50 2.34248e-50 2.30526e-50 2.27459e-50 2.25212e-50 2.23907e-50 2.23607e-50 2.24302e-50 2.25911e-50 2.28281e-50 2.31211e-50 2.34465e-50 2.37801e-50 2.40995e-50 2.43864e-50 2.4628e-50 2.48181e-50 2.49568e-50 2.50502e-50 2.51085e-50 2.51441e-50 2.51699e-50 2.51966e-50 2.52315e-50 2.52767e-50 2.53283e-50 2.53767e-50 2.54066e-50 2.53982e-50 2.5329e-50 2.51749e-50 2.4913e-50 2.45228e-50 2.39884e-50 2.32996e-50 2.24525e-50 2.14507e-50 2.03045e-50 1.90307e-50 1.76515e-50 1.61934e-50 1.46861e-50 1.31601e-50 1.16462e-50 1.01735e-50 8.76796e-51 7.45187e-51 6.24261e-51 5.15233e-51 4.18783e-51 3.35078e-51 2.6382e-51 2.04326e-51 1.55616e-51 1.16514e-51 8.57407e-52 6.19999e-52 4.40465e-52 3.07387e-52 2.10699e-52 1.41843e-52 9.37767e-53 6.0885e-53 3.88195e-53 2.43063e-53 1.49462e-53 9.02621e-54 5.35391e-54 3.11933e-54 1.78531e-54 1.00386e-54 5.5461e-55 3.01097e-55 1.60651e-55 8.42516e-56 4.34358e-56 2.20168e-56 1.09739e-56 5.37936e-57 2.59376e-57 1.23034e-57 5.74223e-58 2.63734e-58 1.1922e-58 5.30514e-59 2.32422e-59 1.00267e-59 4.25995e-60 1.78273e-60 7.34972e-61 2.98554e-61 1.19511e-61 4.71511e-62 1.83369e-62 7.02903e-63 2.65237e-63 9.74371e-64 3.17141e-64 0 
0 5.17706e-88 2.43597e-87 1.08587e-86 4.78601e-86 2.08979e-85 9.04014e-85 3.874e-84 1.64446e-83 6.91403e-83 2.87905e-82 1.18725e-81 4.84817e-81 1.96027e-80 7.84733e-80 3.10998e-79 1.22007e-78 4.73771e-78 1.82081e-77 6.9253e-77 2.60643e-76 9.70619e-76 3.57605e-75 1.30337e-74 4.69897e-74 1.67556e-73 5.90878e-73 2.06049e-72 7.10447e-72 2.42179e-71 8.16086e-71 2.71821e-70 8.94805e-70 2.91087e-69 9.35657e-69 2.97138e-68 9.32167e-68 2.8885e-67 8.83976e-67 2.67142e-66 7.97118e-66 2.34815e-65 6.82799e-65 1.9596e-64 5.54997e-64 1.55096e-63 4.27602e-63 1.1629e-62 3.11925e-62 8.25081e-62 2.15188e-61 5.53285e-61 1.40224e-60 3.50248e-60 8.62057e-60 2.09044e-59 4.99356e-59 1.17486e-58 2.72201e-58 6.20947e-58 1.39446e-57 3.08231e-57 6.70482e-57 1.43505e-56 3.02167e-56 6.2582e-56 1.27468e-55 2.55289e-55 5.02652e-55 9.72825e-55 1.85039e-54 3.45845e-54 6.35069e-54 1.14555e-53 2.0295e-53 3.53092e-53 6.03177e-53 1.01158e-52 1.66532e-52 2.6908e-52 4.26682e-52 6.63926e-52 1.01365e-51 1.51836e-51 2.23125e-51 3.21655e-51 4.54869e-51 6.31003e-51 8.5868e-51 1.14631e-50 1.50133e-50 1.92927e-50 2.43286e-50 3.01113e-50 3.65873e-50 4.36566e-50 5.11735e-50 5.89532e-50 6.6783e-50 7.44382e-50 8.16998e-50 8.83734e-50 9.43054e-50 9.93962e-50 1.03606e-49 1.06958e-49 1.09526e-49 1.11432e-49 1.12823e-49 1.13856e-49 1.14687e-49 1.15448e-49 1.16247e-49 1.17154e-49 1.18207e-49 1.19412e-49 1.20751e-49 1.22186e-49 1.23675e-49 1.25173e-49 1.26641e-49 1.28051e-49 1.29387e-49 1.30644e-49 1.3183e-49 1.32957e-49 1.34041e-49 1.35099e-49 1.3614e-49 1.37166e-49 1.38168e-49 1.39126e-49 1.40005e-49 1.40766e-49 1.4136e-49 1.41737e-49 1.41855e-49 1.41675e-49 1.41178e-49 1.40358e-49 1.3923e-49 1.37824e-49 1.36186e-49 1.34372e-49 1.32439e-49 1.30442e-49 1.28428e-49 1.26429e-49 1.24461e-49 1.22526e-49 1.20609e-49 1.18692e-49 1.16752e-49 1.14771e-49 1.12745e-49 1.10689e-49 1.08635e-49 1.06639e-49 1.04771e-49 1.03112e-49 1.01746e-49 1.00745e-49 1.00163e-49 1.0003e-49 1.0034e-49 1.01058e-49 1.02115e-49 1.03421e-49 1.04872e-49 1.06359e-49 1.07782e-49 1.09061e-49 1.10137e-49 1.10982e-49 1.11599e-49 1.12014e-49 1.12272e-49 1.12429e-49 1.12543e-49 1.12661e-49 1.12817e-49 1.13019e-49 1.1325e-49 1.13468e-49 1.13604e-49 1.13571e-49 1.13266e-49 1.12585e-49 1.11422e-49 1.09689e-49 1.07312e-49 1.04245e-49 1.00472e-49 9.60072e-50 9.08963e-50 8.52134e-50 7.90574e-50 7.25465e-50 6.58116e-50 5.89903e-50 5.22195e-50 4.56291e-50 3.93365e-50 3.34414e-50 2.80221e-50 2.31338e-50 1.88076e-50 1.50516e-50 1.18529e-50 9.18145e-51 6.99361e-51 5.23688e-51 3.85406e-51 2.78706e-51 1.98006e-51 1.38183e-51 9.47157e-52 6.37597e-52 4.21504e-52 2.73638e-52 1.74448e-52 1.09213e-52 6.71459e-53 4.05433e-53 2.40438e-53 1.40057e-53 8.01425e-54 4.50529e-54 2.48846e-54 1.35064e-54 7.20452e-55 3.77731e-55 1.94685e-55 9.86546e-56 4.91585e-56 2.40903e-56 1.16122e-56 5.50655e-57 2.56925e-57 1.17968e-57 5.33108e-58 2.37155e-58 1.03868e-58 4.47954e-59 1.90262e-59 7.95991e-60 3.28069e-60 1.33227e-60 5.33157e-61 2.10289e-61 8.17581e-62 3.13315e-62 1.18197e-62 4.34096e-63 1.41262e-63 0 
0 2.25717e-87 1.06211e-86 4.73476e-86 2.08698e-85 9.11322e-85 3.94249e-84 1.6896e-83 7.17263e-83 3.01592e-82 1.25595e-81 5.1797e-81 2.11533e-80 8.55378e-80 3.42458e-79 1.35734e-78 5.32556e-78 2.06822e-77 7.94964e-77 3.02396e-76 1.13826e-75 4.23939e-75 1.56214e-74 5.69445e-74 2.0533e-73 7.32285e-73 2.5828e-72 9.00821e-72 3.10655e-71 1.05916e-70 3.56983e-70 1.18927e-69 3.91576e-69 1.2741e-68 4.09629e-68 1.30116e-67 4.08288e-67 1.26546e-66 3.87368e-66 1.17094e-65 3.49484e-65 1.02978e-64 2.99524e-64 8.59859e-64 2.43598e-63 6.80944e-63 1.87793e-62 5.10875e-62 1.37074e-61 3.62693e-61 9.46237e-61 2.43373e-60 6.1701e-60 1.54167e-59 3.79577e-59 9.2077e-59 2.20027e-58 5.1785e-58 1.20023e-57 2.73896e-57 6.15312e-57 1.36057e-56 2.96068e-56 6.33916e-56 1.33527e-55 2.76649e-55 5.6369e-55 1.12935e-54 2.22442e-54 4.30664e-54 8.19441e-54 1.53209e-53 2.8143e-53 5.07813e-53 8.99952e-53 1.56621e-52 2.67631e-52 4.48968e-52 7.39314e-52 1.19488e-51 1.89519e-51 2.94961e-51 4.50424e-51 6.7482e-51 9.91824e-51 1.43001e-50 2.02251e-50 2.80594e-50 3.81868e-50 5.09809e-50 6.67719e-50 8.58054e-50 1.08201e-49 1.33914e-49 1.62705e-49 1.94126e-49 2.27526e-49 2.62082e-49 2.96847e-49 3.30819e-49 3.63025e-49 3.92602e-49 4.18869e-49 4.41385e-49 4.5998e-49 4.74753e-49 4.86047e-49 4.94398e-49 5.00462e-49 5.04947e-49 5.08536e-49 5.11825e-49 5.15286e-49 5.19235e-49 5.23838e-49 5.2912e-49 5.34998e-49 5.41311e-49 5.47864e-49 5.54459e-49 5.60926e-49 5.67139e-49 5.73025e-49 5.78567e-49 5.83791e-49 5.88756e-49 5.93535e-49 5.98196e-49 6.02784e-49 6.07307e-49 6.11725e-49 6.15946e-49 6.19827e-49 6.23182e-49 6.25802e-49 6.27471e-49 6.2799e-49 6.27202e-49 6.25011e-49 6.21398e-49 6.16423e-49 6.10224e-49 6.03003e-49 5.95003e-49 5.86481e-49 5.7768e-49 5.68804e-49 5.59995e-49 5.51326e-49 5.428e-49 5.34359e-49 5.25913e-49 5.17362e-49 5.08631e-49 4.99701e-49 4.9063e-49 4.81569e-49 4.72757e-49 4.6451e-49 4.57188e-49 4.51153e-49 4.46731e-49 4.44164e-49 4.43576e-49 4.44949e-49 4.48121e-49 4.52795e-49 4.58569e-49 4.6498e-49 4.7155e-49 4.77839e-49 4.83483e-49 4.88232e-49 4.91963e-49 4.94681e-49 4.96505e-49 4.97637e-49 4.98325e-49 4.98821e-49 4.99342e-49 5.00028e-49 5.00923e-49 5.01953e-49 5.02926e-49 5.03542e-49 5.03412e-49 5.02088e-49 4.99099e-49 4.93989e-49 4.86354e-49 4.75875e-49 4.62345e-49 4.45688e-49 4.25966e-49 4.03378e-49 3.78249e-49 3.51014e-49 3.22194e-49 2.92366e-49 2.6214e-49 2.32122e-49 2.02888e-49 1.7496e-49 1.48782e-49 1.24706e-49 1.02978e-49 8.37404e-50 6.70313e-50 5.27965e-50 4.09038e-50 3.11612e-50 2.33364e-50 1.71758e-50 1.24213e-50 8.82495e-51 6.15867e-51 4.22127e-51 2.84148e-51 1.87831e-51 1.21926e-51 7.772e-52 4.86496e-52 2.99056e-52 1.8054e-52 1.07046e-52 6.23418e-53 3.56647e-53 2.00444e-53 1.10686e-53 6.00602e-54 3.20282e-54 1.67876e-54 8.64995e-55 4.38198e-55 2.18284e-55 1.06939e-55 5.15315e-56 2.44289e-56 1.13945e-56 5.23017e-57 2.36283e-57 1.05079e-57 4.60077e-58 1.98357e-58 8.42233e-59 3.52253e-59 1.45138e-59 5.8922e-60 2.35728e-60 9.29491e-61 3.61272e-61 1.38408e-61 5.21994e-62 1.91661e-62 6.23567e-63 0 
0 9.74919e-87 4.5877e-86 2.04525e-85 9.0155e-85 3.93705e-84 1.70333e-83 7.30036e-83 3.09936e-82 1.30331e-81 5.42798e-81 2.23877e-80 9.14375e-80 3.69783e-79 1.48062e-78 5.86911e-78 2.30303e-77 8.94509e-77 3.43867e-76 1.3082e-75 4.92494e-75 1.83454e-74 6.76098e-74 2.46495e-73 8.88955e-73 3.17089e-72 1.11858e-71 3.90206e-71 1.34591e-70 4.58971e-70 1.54723e-69 5.15561e-69 1.69788e-68 5.52574e-68 1.77696e-67 5.64571e-67 1.77199e-66 5.49353e-66 1.68204e-65 5.08582e-65 1.51835e-64 4.47516e-64 1.30202e-63 3.73886e-63 1.05953e-62 2.96267e-62 8.17308e-62 2.22412e-61 5.96952e-61 1.58003e-60 4.12355e-60 1.06094e-59 2.69067e-59 6.7253e-59 1.65644e-58 4.01961e-58 9.60875e-58 2.26232e-57 5.24537e-57 1.19746e-56 2.69112e-56 5.95285e-56 1.29586e-55 2.77565e-55 5.84881e-55 1.21225e-54 2.47097e-54 4.95243e-54 9.75821e-54 1.88995e-53 3.5974e-53 6.72838e-53 1.23637e-52 2.23167e-52 3.9563e-52 6.88749e-52 1.17728e-51 1.97555e-51 3.25405e-51 5.26062e-51 8.34589e-51 1.29923e-50 1.98443e-50 2.97363e-50 4.37129e-50 6.30349e-50 8.91635e-50 1.23715e-49 1.6838e-49 2.24808e-49 2.9445e-49 3.78386e-49 4.77139e-49 5.90501e-49 7.17406e-49 8.55871e-49 1.00301e-48 1.15519e-48 1.30822e-48 1.45768e-48 1.59928e-48 1.72923e-48 1.84451e-48 1.94322e-48 2.02461e-48 2.08914e-48 2.13834e-48 2.17458e-48 2.20077e-48 2.22002e-48 2.23536e-48 2.24942e-48 2.26426e-48 2.28129e-48 2.30121e-48 2.32415e-48 2.34973e-48 2.37725e-48 2.40583e-48 2.43462e-48 2.46286e-48 2.48999e-48 2.5157e-48 2.5399e-48 2.56272e-48 2.5844e-48 2.60527e-48 2.62563e-48 2.64567e-48 2.66543e-48 2.68474e-48 2.70319e-48 2.72016e-48 2.73483e-48 2.7463e-48 2.7536e-48 2.75588e-48 2.75245e-48 2.74288e-48 2.72709e-48 2.70535e-48 2.67826e-48 2.6467e-48 2.61173e-48 2.57449e-48 2.53604e-48 2.49727e-48 2.4588e-48 2.42094e-48 2.38372e-48 2.34686e-48 2.30999e-48 2.27264e-48 2.2345e-48 2.19547e-48 2.15581e-48 2.11618e-48 2.07763e-48 2.04154e-48 2.00949e-48 1.98307e-48 1.96371e-48 1.95247e-48 1.94991e-48 1.95593e-48 1.96983e-48 1.99031e-48 2.01561e-48 2.0437e-48 2.07248e-48 2.10001e-48 2.12472e-48 2.1455e-48 2.16181e-48 2.17368e-48 2.18163e-48 2.18655e-48 2.18953e-48 2.19168e-48 2.19394e-48 2.19695e-48 2.20088e-48 2.20542e-48 2.20973e-48 2.2125e-48 2.21201e-48 2.20631e-48 2.19333e-48 2.17107e-48 2.13775e-48 2.09196e-48 2.0328e-48 1.95992e-48 1.87357e-48 1.77462e-48 1.66448e-48 1.54504e-48 1.41859e-48 1.28764e-48 1.15487e-48 1.02294e-48 8.94385e-49 7.71506e-49 6.56266e-49 5.50223e-49 4.54478e-49 3.69667e-49 2.95972e-49 2.33165e-49 1.80674e-49 1.3766e-49 1.03104e-49 7.58919e-50 5.48872e-50 3.89966e-50 2.72144e-50 1.86527e-50 1.2555e-50 8.29859e-51 5.38627e-51 3.43294e-51 2.14856e-51 1.32052e-51 7.97046e-52 4.72487e-52 2.75106e-52 1.57346e-52 8.84099e-53 4.88073e-53 2.64765e-53 1.4115e-53 7.39623e-54 3.80982e-54 1.92943e-54 9.60825e-55 4.70564e-55 2.26683e-55 1.07426e-55 5.00911e-56 2.29848e-56 1.03804e-56 4.61484e-57 2.01991e-57 8.70577e-58 3.69533e-58 1.54503e-58 6.36396e-59 2.58279e-59 1.03297e-59 4.07184e-60 1.58216e-60 6.05967e-61 2.28469e-61 8.38645e-62 2.72792e-62 0 
0 4.17124e-86 1.96297e-85 8.75162e-85 3.85798e-84 1.68489e-83 7.29004e-83 3.12469e-82 1.32669e-81 5.57935e-81 2.32388e-80 9.58574e-80 3.91547e-79 1.58363e-78 6.34158e-78 2.51407e-77 9.86638e-77 3.83265e-76 1.47354e-75 5.60671e-75 2.11104e-74 7.86481e-74 2.89894e-73 1.05708e-72 3.81289e-72 1.36029e-71 4.79952e-71 1.67458e-70 5.77715e-70 1.97048e-69 6.64405e-69 2.21437e-68 7.29417e-68 2.37443e-67 7.63746e-67 2.42715e-66 7.61986e-66 2.36292e-65 7.23685e-65 2.18874e-64 6.53619e-64 1.92702e-63 5.6082e-63 1.61093e-62 4.56652e-62 1.27729e-61 3.52478e-61 9.59507e-61 2.57617e-60 6.82101e-60 1.78076e-59 4.58332e-59 1.1628e-58 2.90746e-58 7.16371e-58 1.73904e-57 4.15869e-57 9.79515e-57 2.27196e-56 5.18864e-56 1.16654e-55 2.58143e-55 5.62169e-55 1.2046e-54 2.53933e-54 5.26522e-54 1.07365e-53 2.1527e-53 4.2433e-53 8.2215e-53 1.5655e-52 2.92912e-52 5.38434e-52 9.7223e-52 1.72417e-51 3.00259e-51 5.13401e-51 8.61785e-51 1.41992e-50 2.29613e-50 3.64374e-50 5.6737e-50 8.66791e-50 1.29913e-49 1.91009e-49 2.75483e-49 3.89726e-49 5.40807e-49 7.3612e-49 9.82866e-49 1.28739e-48 1.65438e-48 2.08611e-48 2.58162e-48 3.13622e-48 3.74117e-48 4.38383e-48 5.04822e-48 5.716e-48 6.36786e-48 6.98503e-48 7.5509e-48 8.05245e-48 8.48132e-48 8.83436e-48 9.11365e-48 9.32595e-48 9.48168e-48 9.59361e-48 9.67542e-48 9.74027e-48 9.79967e-48 9.86265e-48 9.9353e-48 1.00207e-47 1.01194e-47 1.02297e-47 1.03486e-47 1.04722e-47 1.05967e-47 1.07189e-47 1.08363e-47 1.09476e-47 1.10524e-47 1.11511e-47 1.1245e-47 1.13353e-47 1.14235e-47 1.15102e-47 1.15958e-47 1.16794e-47 1.17594e-47 1.18329e-47 1.18965e-47 1.19462e-47 1.1978e-47 1.19879e-47 1.19731e-47 1.19317e-47 1.18633e-47 1.17691e-47 1.16517e-47 1.1515e-47 1.13636e-47 1.12023e-47 1.10357e-47 1.08679e-47 1.07013e-47 1.05375e-47 1.03764e-47 1.02169e-47 1.00573e-47 9.8957e-48 9.73054e-48 9.56148e-48 9.38963e-48 9.21783e-48 9.05067e-48 8.89412e-48 8.75505e-48 8.64042e-48 8.55641e-48 8.50766e-48 8.49654e-48 8.52273e-48 8.58314e-48 8.6721e-48 8.78198e-48 8.90394e-48 9.02888e-48 9.1484e-48 9.2556e-48 9.3457e-48 9.41637e-48 9.46775e-48 9.50209e-48 9.52328e-48 9.53607e-48 9.54528e-48 9.55505e-48 9.56808e-48 9.58522e-48 9.60508e-48 9.62402e-48 9.63633e-48 9.63461e-48 9.61033e-48 9.55449e-48 9.4584e-48 9.3143e-48 9.11607e-48 8.8597e-48 8.54363e-48 8.16895e-48 7.73933e-48 7.26085e-48 6.7417e-48 6.19173e-48 5.62191e-48 5.04382e-48 4.46904e-48 3.90866e-48 3.37271e-48 2.86981e-48 2.40679e-48 1.98853e-48 1.61785e-48 1.29562e-48 1.02089e-48 7.91203e-49 6.02925e-49 4.5163e-49 3.32458e-49 2.40456e-49 1.70845e-49 1.19226e-49 8.17144e-50 5.49981e-50 3.63492e-50 2.359e-50 1.50331e-50 9.40716e-51 5.78066e-51 3.48841e-51 2.06747e-51 1.2035e-51 6.88167e-52 3.86566e-52 2.13347e-52 1.15701e-52 6.16637e-53 3.23016e-53 1.66335e-53 8.42106e-54 4.1922e-54 2.05245e-54 9.88388e-55 4.68245e-55 2.18262e-55 1.00117e-55 4.52e-56 2.00878e-56 8.78941e-57 3.78696e-57 1.60691e-57 6.71633e-58 2.76554e-58 1.12202e-58 4.48601e-59 1.76777e-59 6.8667e-60 2.62915e-60 9.90976e-61 3.63657e-61 1.18263e-61 0 
0 1.76775e-85 8.3194e-85 3.70932e-84 1.63529e-83 7.14226e-83 3.0905e-82 1.32477e-81 5.62523e-81 2.36588e-80 9.85519e-80 4.06557e-79 1.66083e-78 6.71806e-78 2.69053e-77 1.06677e-76 4.18704e-76 1.6267e-75 6.25505e-75 2.38035e-74 8.96387e-74 3.34006e-73 1.23134e-72 4.49078e-72 1.62011e-71 5.78099e-71 2.0401e-70 7.11943e-70 2.45663e-69 8.38088e-69 2.82648e-68 9.4224e-68 3.10447e-67 1.01082e-66 3.25216e-66 1.03378e-65 3.24634e-65 1.00696e-64 3.08484e-64 9.33254e-64 2.78777e-63 8.22147e-63 2.39342e-62 6.87712e-62 1.95009e-61 5.45636e-61 1.50623e-60 4.1016e-60 1.10162e-59 2.91783e-59 7.62032e-59 1.96204e-58 4.9796e-58 1.24557e-57 3.07015e-57 7.45589e-57 1.78369e-56 4.20287e-56 9.75237e-56 2.22812e-55 5.01142e-55 1.10943e-54 2.41706e-54 5.18136e-54 1.09269e-53 2.2666e-53 4.62379e-53 9.27461e-53 1.82891e-52 3.54498e-52 6.75285e-52 1.26398e-51 2.32434e-51 4.19854e-51 7.44845e-51 1.29758e-50 2.21944e-50 3.72671e-50 6.14221e-50 9.93538e-50 1.57708e-49 2.45631e-49 3.75347e-49 5.62684e-49 8.27463e-49 1.19361e-48 1.68883e-48 2.3438e-48 3.19055e-48 4.26027e-48 5.58042e-48 7.17128e-48 9.04249e-48 1.11898e-47 1.35926e-47 1.62129e-47 1.89955e-47 2.1871e-47 2.47597e-47 2.75779e-47 3.02442e-47 3.26867e-47 3.48492e-47 3.66959e-47 3.82133e-47 3.94109e-47 4.03183e-47 4.09809e-47 4.14544e-47 4.17981e-47 4.20691e-47 4.23173e-47 4.25817e-47 4.28885e-47 4.32513e-47 4.3672e-47 4.41433e-47 4.46519e-47 4.51814e-47 4.57153e-47 4.62394e-47 4.67431e-47 4.72205e-47 4.76699e-47 4.80935e-47 4.84961e-47 4.88836e-47 4.92617e-47 4.9634e-47 5.00013e-47 5.03603e-47 5.07036e-47 5.10194e-47 5.12928e-47 5.15066e-47 5.1643e-47 5.1686e-47 5.16226e-47 5.14449e-47 5.11514e-47 5.07471e-47 5.02431e-47 4.96561e-47 4.90059e-47 4.83135e-47 4.75988e-47 4.68784e-47 4.6164e-47 4.54612e-47 4.47703e-47 4.40865e-47 4.3402e-47 4.27086e-47 4.19998e-47 4.12741e-47 4.0536e-47 3.97979e-47 3.90795e-47 3.84064e-47 3.78084e-47 3.73154e-47 3.69541e-47 3.67444e-47 3.66967e-47 3.68096e-47 3.70698e-47 3.74528e-47 3.79258e-47 3.84507e-47 3.89884e-47 3.95026e-47 3.99635e-47 4.03508e-47 4.06543e-47 4.08746e-47 4.10216e-47 4.1112e-47 4.11663e-47 4.12054e-47 4.12471e-47 4.13032e-47 4.13772e-47 4.14634e-47 4.15459e-47 4.16003e-47 4.15947e-47 4.14923e-47 4.12544e-47 4.08435e-47 4.0226e-47 3.93756e-47 3.82746e-47 3.69164e-47 3.53051e-47 3.34564e-47 3.13963e-47 2.91599e-47 2.67892e-47 2.43315e-47 2.18367e-47 1.93547e-47 1.69333e-47 1.46162e-47 1.24407e-47 1.04367e-47 8.62539e-48 7.0194e-48 5.62265e-48 4.43132e-48 3.43493e-48 2.61793e-48 1.96123e-48 1.44384e-48 1.04434e-48 7.4202e-49 5.17823e-49 3.54888e-49 2.38842e-49 1.5784e-49 1.02423e-49 6.52608e-50 4.08309e-50 2.50856e-50 1.5135e-50 8.96798e-51 5.2191e-51 2.98351e-51 1.67547e-51 9.2443e-52 5.01179e-52 2.67024e-52 1.39832e-52 7.19817e-53 3.64302e-53 1.81296e-53 8.87299e-54 4.27143e-54 2.02287e-54 9.42581e-55 4.32213e-55 1.95062e-55 8.6659e-56 3.79044e-56 1.63256e-56 6.92498e-57 2.89341e-57 1.19099e-57 4.83039e-58 1.93062e-58 7.60536e-59 2.95326e-59 1.13039e-59 4.25936e-60 1.56259e-60 5.08041e-61 0 
0 7.41993e-85 3.49218e-84 1.55714e-83 6.86528e-83 2.9987e-82 1.29766e-81 5.56301e-81 2.36238e-80 9.93673e-80 4.13961e-79 1.7079e-78 6.97774e-78 2.82282e-77 1.13066e-76 4.48354e-76 1.76001e-75 6.83872e-75 2.63004e-74 1.00101e-73 3.77018e-73 1.40506e-72 5.18073e-72 1.88979e-71 6.81892e-71 2.43364e-70 8.58996e-70 2.9983e-69 1.03481e-68 3.53108e-68 1.19114e-67 3.97173e-67 1.30891e-66 4.2629e-66 1.37187e-65 4.362e-65 1.37015e-64 4.25118e-64 1.30273e-63 3.94229e-63 1.17798e-62 3.47508e-62 1.01198e-61 2.90871e-61 8.25075e-61 2.30935e-60 6.37716e-60 1.73718e-59 4.66745e-59 1.23671e-58 3.23106e-58 8.32232e-58 2.113e-57 5.28743e-57 1.3038e-56 3.16757e-56 7.58094e-56 1.78702e-55 4.14836e-55 9.48175e-55 2.13351e-54 4.7252e-54 1.02989e-53 2.2087e-53 4.6599e-53 9.67029e-53 1.97356e-52 3.96033e-52 7.81288e-52 1.515e-51 2.88713e-51 5.40624e-51 9.94553e-51 1.79719e-50 3.18953e-50 5.55846e-50 9.51075e-50 1.59751e-49 2.63381e-49 4.26164e-49 6.76659e-49 1.05418e-48 1.61128e-48 2.41602e-48 3.55362e-48 5.12694e-48 7.25519e-48 1.00701e-47 1.37094e-47 1.83071e-47 2.39808e-47 3.08175e-47 3.88578e-47 4.80829e-47 5.84031e-47 6.96538e-47 8.15973e-47 9.3934e-47 1.06321e-46 1.18398e-46 1.29815e-46 1.40264e-46 1.49505e-46 1.57384e-46 1.63846e-46 1.68933e-46 1.72774e-46 1.75566e-46 1.77548e-46 1.78975e-46 1.80094e-46 1.81119e-46 1.82216e-46 1.83499e-46 1.85025e-46 1.86801e-46 1.88796e-46 1.90952e-46 1.932e-46 1.95468e-46 1.97696e-46 1.99837e-46 2.01866e-46 2.03777e-46 2.05577e-46 2.07289e-46 2.08936e-46 2.10544e-46 2.12127e-46 2.13689e-46 2.15217e-46 2.16677e-46 2.18022e-46 2.19186e-46 2.20097e-46 2.20679e-46 2.20863e-46 2.20594e-46 2.19839e-46 2.18591e-46 2.1687e-46 2.14726e-46 2.12228e-46 2.09461e-46 2.06516e-46 2.03476e-46 2.00412e-46 1.97375e-46 1.94388e-46 1.91451e-46 1.88545e-46 1.85636e-46 1.82688e-46 1.79674e-46 1.76587e-46 1.73445e-46 1.70302e-46 1.67242e-46 1.64374e-46 1.61826e-46 1.59724e-46 1.58184e-46 1.57291e-46 1.57088e-46 1.5757e-46 1.5868e-46 1.60315e-46 1.62333e-46 1.64573e-46 1.66866e-46 1.69058e-46 1.71022e-46 1.72672e-46 1.73963e-46 1.74899e-46 1.75523e-46 1.75905e-46 1.76134e-46 1.76298e-46 1.76474e-46 1.76713e-46 1.77031e-46 1.77401e-46 1.77757e-46 1.77996e-46 1.7798e-46 1.77553e-46 1.7655e-46 1.74809e-46 1.72188e-46 1.68572e-46 1.63888e-46 1.58103e-46 1.51237e-46 1.43354e-46 1.34564e-46 1.25015e-46 1.14888e-46 1.04382e-46 9.3711e-47 8.3088e-47 7.27184e-47 6.2789e-47 5.34609e-47 4.4863e-47 3.70878e-47 3.01904e-47 2.41889e-47 1.90678e-47 1.47831e-47 1.12686e-47 8.4429e-48 6.21613e-48 4.49639e-48 3.19482e-48 2.2295e-48 1.52791e-48 1.02822e-48 6.79432e-49 4.40829e-49 2.80839e-49 1.75678e-49 1.07911e-49 6.50918e-50 3.85596e-50 2.24347e-50 1.28213e-50 7.19807e-51 3.97028e-51 2.15181e-51 1.14609e-51 5.99971e-52 3.08743e-52 1.56201e-52 7.77066e-53 3.80175e-53 1.82949e-53 8.66094e-54 4.0342e-54 1.84917e-54 8.34243e-55 3.70488e-55 1.61991e-55 6.97448e-56 2.95737e-56 1.23521e-56 5.0826e-57 2.06067e-57 8.23327e-58 3.24224e-58 1.25858e-58 4.81577e-59 1.81401e-59 6.65286e-60 2.1625e-60 0 