# vtk DataFile Version 3.0
Gray-Scott Simulation Output
ASCII
DATASET STRUCTURED_POINTS
DIMENSIONS 256 256 1
SPACING 1.0 1.0 1.0
ORIGIN 0 0 0
POINT_DATA 65536
SCALARS u double
LOOKUP_TABLE default
0 0 0 0 0 0 0 0 0 0 0 0 0 0 0 0 0 0 0 0 0 0 0 0 0 0 0 0 0 0 0 0 0 0 0 0 0 0 0 0 0 0 0 0 0 0 0 0 0 0 0 0 0 0 0 0 0 0 0 0 0 0 0 0 0 0 0 0 0 0 0 0 0 0 0 0 0 0 0 0 0 0 0 0 0 0 0 0 0 0 0 0 0 0 0 0 0 0 0 0 0 0 0 0 0 0 0 0 0 0 0 0 0 0 0 0 0 0 0 0 0 0 0 0 0 0 0 0 0 0 0 0 0 0 0 0 0 0 0 0 0 0 0 0 0 0 0 0 0 0 0 0 0 0 0 0 0 0 0 0 0 0 0 0 0 0 0 0 0 0 0 0 0 0 0 0 0 0 0 0 0 0 0 0 0 0 0 0 0 0 0 0 0 0 0 0 0 0 0 0 0 0 0 0 0 0 0 0 0 0 0 0 0 0 0 0 0 0 0 0 0 0 0 0 0 0 0 0 0 0 0 0 0 0 0 0 0 0 0 0 0 0 0 0 0 0 0 0 0 0 0 0 0 0 0 0 
0 3.22877e-82 1.29303e-81 4.82177e-81 1.77507e-80 6.47589e-80 2.34181e-79 8.39365e-79 2.98173e-78 1.04973e-77 3.66221e-77 1.26602e-76 4.33648e-76 1.47165e-75 4.94775e-75 1.64785e-74 5.43628e-74 1.77635e-73 5.74861e-73 1.84236e-72 5.8469e-72 1.83732e-71 5.71633e-71 1.7607e-70 5.36855e-70 1.62029e-69 4.84014e-69 1.43091e-68 4.18622e-68 1.21184e-67 3.47094e-67 9.83524e-67 2.75689e-66 7.64382e-66 2.09613e-65 5.68458e-65 1.52444e-64 4.04216e-64 1.05965e-63 2.74607e-63 7.0343e-63 1.78091e-62 4.45587e-62 1.10165e-61 2.6911e-61 6.4945e-61 1.54825e-60 3.64561e-60 8.47779e-60 1.94684e-59 4.41431e-59 9.8817e-59 2.18366e-58 4.76292e-58 1.02528e-57 2.17795e-57 4.56488e-57 9.43931e-57 1.92542e-56 3.87379e-56 7.68627e-56 1.50388e-55 2.90121e-55 5.51769e-55 1.03442e-54 1.91138e-54 3.48061e-54 6.24556e-54 1.10419e-53 1.92322e-53 3.29968e-53 5.57606e-53 9.28008e-53 1.52089e-52 2.45429e-52 3.89937e-52 6.09907e-52 9.39074e-52 1.42321e-51 2.12295e-51 3.11666e-51 4.50291e-51 6.40228e-51 8.95777e-51 1.23334e-50 1.67101e-50 2.22792e-50 2.92317e-50 3.77455e-50 4.79696e-50 6.00067e-50 7.38961e-50 8.95984e-50 1.06985e-49 1.25833e-49 1.45826e-49 1.6657e-49 1.87609e-49 2.08452e-49 2.28609e-49 2.47621e-49 2.65093e-49 2.80721e-49 2.94315e-49 3.05803e-49 3.1523e-49 3.22749e-49 3.28597e-49 3.33071e-49 3.36496e-49 3.39195e-49 3.41468e-49 3.43571e-49 3.45699e-49 3.47987e-49 3.5051e-49 3.53289e-49 3.56303e-49 3.59504e-49 3.62829e-49 3.66211e-49 3.69591e-49 3.72921e-49 3.76169e-49 3.79315e-49 3.82352e-49 3.85278e-49 3.88091e-49 3.90783e-49 3.93334e-49 3.9571e-49 3.97864e-49 3.99732e-49 4.0124e-49 4.02309e-49 4.02862e-49 4.02831e-49 4.02166e-49 4.00838e-49 3.98846e-49 3.96215e-49 3.92997e-49 3.89266e-49 3.85107e-49 3.80615e-49 3.75878e-49 3.70976e-49 3.65972e-49 3.6091e-49 3.55815e-49 3.507e-49 3.45569e-49 3.40426e-49 3.35286e-49 3.30185e-49 3.25177e-49 3.20348e-49 3.15805e-49 3.11671e-49 3.08079e-49 3.05155e-49 3.03005e-49 3.01702e-49 3.01277e-49 3.01709e-49 3.0293e-49 3.04823e-49 3.07238e-49 3.10001e-49 3.1293e-49 3.15855e-49 3.18629e-49 3.2114e-49 3.2332e-49 3.25141e-49 3.26615e-49 3.27783e-49 3.28703e-49 3.29439e-49 3.30039e-49 3.30528e-49 3.30898e-49 3.31096e-49 3.31028e-49 3.30559e-49 3.2952e-49 3.27718e-49 3.24951e-49 3.21022e-49 3.15751e-49 3.08995e-49 3.00651e-49 2.90671e-49 2.79068e-49 2.65914e-49 2.51341e-49 2.35535e-49 2.18731e-49 2.012e-49 1.83238e-49 1.65152e-49 1.47251e-49 1.29824e-49 1.13139e-49 9.74231e-50 8.28607e-50 6.95861e-50 5.76823e-50 4.71821e-50 3.80717e-50 3.02974e-50 2.3773e-50 1.83885e-50 1.40188e-50 1.05318e-50 7.79583e-51 5.6851e-51 4.084e-51 2.88982e-51 2.01403e-51 1.38247e-51 9.34601e-52 6.22261e-52 4.08034e-52 2.63514e-52 1.67613e-52 1.05008e-52 6.47993e-53 3.9389e-53 2.35865e-53 1.39145e-53 8.0876e-54 4.63187e-54 2.61405e-54 1.4539e-54 7.96999e-55 4.30652e-55 2.29396e-55 1.2047e-55 6.23813e-56 3.18535e-56 1.60411e-56 7.96772e-57 3.90396e-57 1.8871e-57 9.0002e-58 4.23571e-58 1.96727e-58 9.0181e-59 4.08056e-59 1.82258e-59 8.03233e-60 3.48287e-60 1.46028e-60 5.2839e-61 0 
0 1.29122e-81 5.17157e-81 1.92877e-80 7.1015e-80 2.59119e-79 9.37168e-79 3.35958e-78 1.19364e-77 4.20293e-77 1.46654e-76 5.07069e-76 1.73717e-75 5.89645e-75 1.9828e-74 6.60501e-74 2.17945e-73 7.123e-73 2.30564e-72 7.39089e-72 2.3461e-71 7.37405e-71 2.29478e-70 7.06993e-70 2.15622e-69 6.50938e-69 1.94499e-68 5.75159e-68 1.68312e-67 4.87371e-67 1.39632e-66 3.95774e-66 1.10971e-65 3.07774e-65 8.44252e-65 2.29028e-64 6.14385e-64 1.62961e-63 4.27342e-63 1.10783e-62 2.83877e-62 7.18956e-62 1.79947e-61 4.45054e-61 1.08757e-60 2.62562e-60 6.26166e-60 1.47496e-59 3.43131e-59 7.88268e-59 1.78803e-58 4.00419e-58 8.85197e-58 1.93152e-57 4.15954e-57 8.83938e-57 1.85344e-56 3.83411e-56 7.82395e-56 1.57475e-55 3.12583e-55 6.1184e-55 1.1808e-54 2.24659e-54 4.21342e-54 7.78847e-54 1.41881e-53 2.54686e-53 4.50441e-53 7.84832e-53 1.34701e-52 2.27707e-52 3.7909e-52 6.21479e-52 1.00319e-51 1.59433e-51 2.4944e-51 3.8416e-51 5.8235e-51 8.68862e-51 1.27581e-50 1.8436e-50 2.62165e-50 3.66857e-50 5.05155e-50 6.84475e-50 9.12643e-50 1.19748e-49 1.54625e-49 1.96503e-49 2.45798e-49 3.02666e-49 3.66939e-49 4.38081e-49 5.1517e-49 5.96907e-49 6.81665e-49 7.67569e-49 8.52611e-49 9.34777e-49 1.01219e-48 1.08324e-48 1.14669e-48 1.20178e-48 1.24822e-48 1.28621e-48 1.31639e-48 1.33974e-48 1.3575e-48 1.37098e-48 1.38154e-48 1.3904e-48 1.39859e-48 1.40692e-48 1.41595e-48 1.42596e-48 1.43705e-48 1.44913e-48 1.46199e-48 1.47538e-48 1.48901e-48 1.50266e-48 1.5161e-48 1.52923e-48 1.54194e-48 1.55422e-48 1.56605e-48 1.57743e-48 1.58832e-48 1.59864e-48 1.60827e-48 1.61699e-48 1.62456e-48 1.63067e-48 1.63501e-48 1.63725e-48 1.63714e-48 1.63445e-48 1.62908e-48 1.62102e-48 1.61037e-48 1.59735e-48 1.58225e-48 1.56542e-48 1.54724e-48 1.52807e-48 1.50823e-48 1.48799e-48 1.46751e-48 1.44691e-48 1.42622e-48 1.40546e-48 1.38465e-48 1.36386e-48 1.34321e-48 1.32294e-48 1.30338e-48 1.28497e-48 1.26823e-48 1.25367e-48 1.24182e-48 1.23311e-48 1.22783e-48 1.22612e-48 1.22788e-48 1.23284e-48 1.24053e-48 1.25033e-48 1.26154e-48 1.27343e-48 1.28529e-48 1.29653e-48 1.30671e-48 1.31554e-48 1.3229e-48 1.32886e-48 1.33358e-48 1.3373e-48 1.34028e-48 1.34272e-48 1.34472e-48 1.34624e-48 1.34709e-48 1.34687e-48 1.34504e-48 1.34091e-48 1.3337e-48 1.32259e-48 1.30677e-48 1.28552e-48 1.25823e-48 1.2245e-48 1.18412e-48 1.13714e-48 1.08382e-48 1.02472e-48 9.60572e-49 8.92327e-49 8.2108e-49 7.48032e-49 6.74436e-49 6.01539e-49 5.30533e-49 4.62504e-49 3.9839e-49 3.38947e-49 2.84732e-49 2.3609e-49 1.93163e-49 1.55901e-49 1.24092e-49 9.73872e-50 7.53409e-50 5.74446e-50 4.31603e-50 3.19503e-50 2.33007e-50 1.67388e-50 1.18441e-50 8.25436e-51 5.66559e-51 3.82982e-51 2.54963e-51 1.67164e-51 1.07941e-51 6.86459e-52 4.29979e-52 2.65281e-52 1.61218e-52 9.65161e-53 5.69239e-53 3.30775e-53 1.89387e-53 1.06852e-53 5.94124e-54 3.25588e-54 1.75875e-54 9.36537e-55 4.91676e-55 2.54514e-55 1.29918e-55 6.54038e-56 3.24756e-56 1.59067e-56 7.6864e-57 3.66465e-57 1.72408e-57 8.00476e-58 3.66818e-58 1.65924e-58 7.40849e-59 3.26392e-59 1.4148e-59 5.93008e-60 2.14526e-60 0 
0 4.8073e-81 1.92567e-80 7.18305e-80 2.64515e-79 9.65326e-79 3.49196e-78 1.25203e-77 4.44922e-77 1.56692e-76 5.46859e-76 1.8912e-75 6.48045e-75 2.20012e-74 7.39998e-74 2.46562e-73 8.13767e-73 2.66024e-72 8.61305e-72 2.76168e-71 8.76871e-71 2.75684e-70 8.58153e-70 2.64461e-69 8.06796e-69 2.43634e-68 7.28191e-68 2.15402e-67 6.30542e-67 1.82641e-66 5.23437e-66 1.48413e-65 4.16279e-65 1.15494e-64 3.16923e-64 8.60058e-64 2.30802e-63 6.12415e-63 1.60659e-62 4.16649e-62 1.06807e-61 2.70612e-61 6.7759e-61 1.67654e-60 4.09865e-60 9.89921e-60 2.36181e-59 5.56579e-59 1.29538e-58 2.97718e-58 6.7562e-58 1.51369e-57 3.34782e-57 7.3084e-57 1.57459e-56 3.3477e-56 7.02274e-56 1.45343e-55 2.96728e-55 5.97512e-55 1.1866e-54 2.32369e-54 4.48658e-54 8.54012e-54 1.6024e-53 2.96335e-53 5.40068e-53 9.69876e-53 1.71607e-52 2.99126e-52 5.13601e-52 8.68562e-52 1.44655e-51 2.37234e-51 3.83079e-51 6.09012e-51 9.53127e-51 1.46834e-50 2.22647e-50 3.32273e-50 4.88011e-50 7.05342e-50 1.0032e-49 1.40402e-49 1.93355e-49 2.62017e-49 3.49382e-49 4.58439e-49 5.91963e-49 7.52263e-49 9.40916e-49 1.15849e-48 1.40432e-48 1.67631e-48 1.9709e-48 2.28308e-48 2.60657e-48 2.93419e-48 3.25822e-48 3.57096e-48 3.86523e-48 4.13489e-48 4.37528e-48 4.58348e-48 4.75848e-48 4.90111e-48 5.01389e-48 5.10062e-48 5.16604e-48 5.21528e-48 5.25347e-48 5.28533e-48 5.31483e-48 5.34505e-48 5.37805e-48 5.41499e-48 5.45615e-48 5.5012e-48 5.54933e-48 5.59956e-48 5.6508e-48 5.70213e-48 5.75276e-48 5.8022e-48 5.85012e-48 5.89642e-48 5.94104e-48 5.98396e-48 6.02505e-48 6.06402e-48 6.10036e-48 6.13331e-48 6.16192e-48 6.18503e-48 6.20145e-48 6.20998e-48 6.20959e-48 6.19948e-48 6.17923e-48 6.14881e-48 6.10862e-48 6.05945e-48 6.00243e-48 5.93889e-48 5.87025e-48 5.7979e-48 5.72305e-48 5.64667e-48 5.56942e-48 5.49169e-48 5.41364e-48 5.33534e-48 5.25683e-48 5.17834e-48 5.10038e-48 5.02383e-48 4.94995e-48 4.8804e-48 4.8171e-48 4.76208e-48 4.71728e-48 4.68435e-48 4.66442e-48 4.65796e-48 4.66467e-48 4.68348e-48 4.71262e-48 4.74975e-48 4.7922e-48 4.83719e-48 4.88207e-48 4.9246e-48 4.96306e-48 4.9964e-48 5.0242e-48 5.04667e-48 5.06446e-48 5.07849e-48 5.08973e-48 5.09896e-48 5.10659e-48 5.11248e-48 5.11586e-48 5.11529e-48 5.10869e-48 5.09345e-48 5.06662e-48 5.02507e-48 4.96574e-48 4.88587e-48 4.78316e-48 4.65602e-48 4.50365e-48 4.32618e-48 4.12464e-48 3.90101e-48 3.6581e-48 3.39947e-48 3.12925e-48 2.85199e-48 2.57242e-48 2.2953e-48 2.02518e-48 1.76619e-48 1.52193e-48 1.29532e-48 1.08851e-48 9.02845e-49 7.38905e-49 5.96531e-49 4.74932e-49 3.72803e-49 2.8846e-49 2.19972e-49 1.65292e-49 1.2237e-49 8.92465e-50 6.41138e-50 4.53654e-50 3.16145e-50 2.16978e-50 1.46657e-50 9.76218e-51 6.39952e-51 4.13154e-51 2.62696e-51 1.6451e-51 1.01472e-51 6.16511e-52 3.68984e-52 2.17558e-52 1.26381e-52 7.23368e-53 4.07991e-53 2.26775e-53 1.24232e-53 6.7083e-54 3.57088e-54 1.87399e-54 9.69697e-55 4.94798e-55 2.48996e-55 1.23588e-55 6.05104e-56 2.92282e-56 1.39296e-56 6.55079e-57 3.04027e-57 1.39266e-57 6.29696e-58 2.8105e-58 1.23773e-58 5.3631e-59 2.24715e-59 8.12707e-60 0 
0 1.7668e-80 7.07831e-80 2.64075e-79 9.72624e-79 3.55015e-78 1.28446e-77 4.60628e-77 1.63721e-76 5.76707e-76 2.01314e-75 6.96353e-75 2.38667e-74 8.1046e-74 2.72657e-73 9.0869e-73 2.99983e-72 9.80907e-72 3.1767e-71 1.01884e-70 3.23585e-70 1.01762e-69 3.16857e-69 9.76756e-69 2.98071e-68 9.00382e-68 2.69198e-67 7.96554e-67 2.3325e-66 6.75853e-66 1.93761e-65 5.49577e-65 1.54204e-64 4.27984e-64 1.17485e-63 3.1895e-63 8.56254e-63 2.2729e-62 5.96503e-62 1.54759e-61 3.96885e-61 1.00599e-60 2.52e-60 6.23787e-60 1.52565e-59 3.68644e-59 8.79931e-59 2.07457e-58 4.83058e-58 1.11073e-57 2.52181e-57 5.65269e-57 1.2508e-56 2.73185e-56 5.88861e-56 1.25258e-55 2.62891e-55 5.44349e-55 1.11187e-54 2.24004e-54 4.45067e-54 8.71989e-54 1.68445e-53 3.20787e-53 6.02186e-53 1.11416e-52 2.03149e-52 3.64991e-52 6.46093e-52 1.12669e-51 1.93536e-51 3.2743e-51 5.45537e-51 8.95027e-51 1.4458e-50 2.29932e-50 3.59973e-50 5.54729e-50 8.41394e-50 1.25601e-49 1.84516e-49 2.66746e-49 3.7946e-49 5.31158e-49 7.31582e-49 9.91472e-49 1.32215e-48 1.73491e-48 2.24022e-48 2.84676e-48 3.56043e-48 4.38328e-48 5.31264e-48 6.3405e-48 7.45318e-48 8.63157e-48 9.85184e-48 1.10866e-47 1.23067e-47 1.34829e-47 1.45881e-47 1.55992e-47 1.64988e-47 1.72759e-47 1.7927e-47 1.84556e-47 1.88713e-47 1.91888e-47 1.94261e-47 1.96029e-47 1.97386e-47 1.98511e-47 1.99553e-47 2.0063e-47 2.01818e-47 2.0316e-47 2.04667e-47 2.06325e-47 2.08103e-47 2.09963e-47 2.11865e-47 2.13771e-47 2.15654e-47 2.17494e-47 2.19278e-47 2.21002e-47 2.22664e-47 2.24263e-47 2.25795e-47 2.27248e-47 2.28603e-47 2.29833e-47 2.30901e-47 2.31765e-47 2.32379e-47 2.32699e-47 2.32686e-47 2.3231e-47 2.31556e-47 2.30422e-47 2.28923e-47 2.2709e-47 2.24963e-47 2.22593e-47 2.20034e-47 2.17337e-47 2.14547e-47 2.117e-47 2.08821e-47 2.05925e-47 2.03017e-47 2.00099e-47 1.97173e-47 1.94247e-47 1.9134e-47 1.88484e-47 1.85727e-47 1.83131e-47 1.80767e-47 1.78713e-47 1.7704e-47 1.7581e-47 1.75066e-47 1.74826e-47 1.75078e-47 1.75783e-47 1.76874e-47 1.78264e-47 1.79852e-47 1.81534e-47 1.83212e-47 1.84801e-47 1.86237e-47 1.87481e-47 1.88517e-47 1.89354e-47 1.90016e-47 1.90539e-47 1.90957e-47 1.91303e-47 1.91591e-47 1.91816e-47 1.9195e-47 1.91938e-47 1.91704e-47 1.9115e-47 1.90165e-47 1.88632e-47 1.86436e-47 1.83472e-47 1.79654e-47 1.74922e-47 1.69245e-47 1.62624e-47 1.55099e-47 1.46742e-47 1.37656e-47 1.27974e-47 1.17849e-47 1.07452e-47 9.69605e-48 8.65521e-48 7.63983e-48 6.66557e-48 5.74605e-48 4.89236e-48 4.11273e-48 3.4124e-48 2.79364e-48 2.25599e-48 1.79657e-48 1.41055e-48 1.09163e-48 8.32572e-49 6.25685e-49 4.63251e-49 3.37872e-49 2.42727e-49 1.71745e-49 1.1968e-49 8.2133e-50 5.55084e-50 3.69438e-50 2.42143e-50 1.56298e-50 9.93584e-51 6.22071e-51 3.83604e-51 2.33002e-51 1.39412e-51 8.21741e-52 4.772e-52 2.73044e-52 1.53948e-52 8.55384e-53 4.68425e-53 2.52845e-53 1.34539e-53 7.05784e-54 3.65063e-54 1.86202e-54 9.3664e-55 4.64707e-55 2.27433e-55 1.09811e-55 5.23122e-56 2.45911e-56 1.14082e-56 5.22359e-57 2.3609e-57 1.0533e-57 4.63679e-58 2.00834e-58 8.41192e-59 3.04141e-59 0 
0 6.43478e-80 2.57834e-79 9.62085e-79 3.54412e-78 1.29387e-77 4.68217e-77 1.67943e-76 5.97041e-76 2.10352e-75 7.34442e-75 2.54103e-74 8.71106e-74 2.95877e-73 9.95637e-73 3.319e-72 1.09597e-71 3.58462e-71 1.1612e-70 3.72526e-70 1.18348e-69 3.7229e-69 1.15955e-68 3.57555e-68 1.09147e-67 3.29804e-67 9.86372e-67 2.91964e-66 8.5523e-66 2.47893e-65 7.1094e-65 2.01721e-64 5.66211e-64 1.57208e-63 4.31716e-63 1.17248e-62 3.14891e-62 8.36208e-62 2.19546e-61 5.69839e-61 1.462e-60 3.70737e-60 9.29104e-60 2.30088e-59 5.63002e-59 1.36102e-58 3.25018e-58 7.66643e-58 1.78596e-57 4.10859e-57 9.33269e-57 2.09297e-56 4.63352e-56 1.01251e-55 2.1836e-55 4.64711e-55 9.75833e-55 2.02161e-54 4.13139e-54 8.32755e-54 1.65542e-53 3.24499e-53 6.27163e-53 1.19496e-52 2.24432e-52 4.15445e-52 7.57864e-52 1.36227e-51 2.41257e-51 4.2091e-51 7.23336e-51 1.22429e-50 2.04066e-50 3.34933e-50 5.41251e-50 8.61092e-50 1.34856e-49 2.07885e-49 3.15409e-49 4.70966e-49 6.92054e-49 1.0007e-48 1.42383e-48 1.99337e-48 2.74592e-48 3.72178e-48 4.96343e-48 6.5132e-48 8.41022e-48 1.06869e-47 1.33651e-47 1.64521e-47 1.99375e-47 2.37904e-47 2.79591e-47 3.23712e-47 3.69367e-47 4.15525e-47 4.61086e-47 5.04954e-47 5.46114e-47 5.83704e-47 6.17073e-47 6.45824e-47 6.69831e-47 6.89234e-47 7.04406e-47 7.15906e-47 7.24417e-47 7.30681e-47 7.3543e-47 7.39336e-47 7.42962e-47 7.46742e-47 7.50966e-47 7.55789e-47 7.61249e-47 7.67291e-47 7.738e-47 7.80627e-47 7.87621e-47 7.94643e-47 8.01585e-47 8.08369e-47 8.14953e-47 8.21317e-47 8.27455e-47 8.33362e-47 8.39022e-47 8.44394e-47 8.49407e-47 8.53958e-47 8.57912e-47 8.61112e-47 8.63389e-47 8.64579e-47 8.64536e-47 8.63153e-47 8.60368e-47 8.56177e-47 8.50637e-47 8.43857e-47 8.35993e-47 8.27232e-47 8.1777e-47 8.07799e-47 7.97488e-47 7.86968e-47 7.76333e-47 7.65634e-47 7.54892e-47 7.44111e-47 7.333e-47 7.22486e-47 7.11737e-47 7.01175e-47 6.90975e-47 6.81367e-47 6.72618e-47 6.6501e-47 6.58816e-47 6.54263e-47 6.51511e-47 6.50626e-47 6.51568e-47 6.54188e-47 6.58238e-47 6.63395e-47 6.69286e-47 6.75523e-47 6.81741e-47 6.87626e-47 6.92942e-47 6.97543e-47 7.01373e-47 7.04463e-47 7.06907e-47 7.08834e-47 7.10383e-47 7.11666e-47 7.12742e-47 7.13595e-47 7.1412e-47 7.14118e-47 7.13301e-47 7.11309e-47 7.07728e-47 7.02124e-47 6.94069e-47 6.83172e-47 6.6911e-47 6.51653e-47 6.30683e-47 6.06204e-47 5.78352e-47 5.47389e-47 5.13697e-47 4.77761e-47 4.40151e-47 4.01494e-47 3.62452e-47 3.23687e-47 2.8584e-47 2.49496e-47 2.15168e-47 1.83273e-47 1.54126e-47 1.27925e-47 1.04763e-47 8.46256e-48 6.74096e-48 5.29375e-48 4.09763e-48 3.12569e-48 2.34927e-48 1.73952e-48 1.26877e-48 9.11499e-49 6.4493e-49 4.49394e-49 3.08379e-49 2.08389e-49 1.38674e-49 9.08764e-50 5.86473e-50 3.72737e-50 2.33309e-50 1.43833e-50 8.73397e-51 5.2242e-51 3.07833e-51 1.78704e-51 1.02215e-51 5.76101e-52 3.19981e-52 1.75161e-52 9.45106e-53 5.02691e-53 2.636e-53 1.3629e-53 6.94862e-54 3.49384e-54 1.73271e-54 8.47645e-55 4.09091e-55 1.94801e-55 9.15333e-56 4.24455e-56 1.94267e-56 8.77652e-57 3.91392e-57 1.72225e-57 7.45658e-58 3.122e-58 1.12846e-58 0 
0 2.32291e-79 9.30906e-79 3.4742e-78 1.28006e-77 4.67406e-77 1.69176e-76 6.06932e-76 2.15811e-75 7.60516e-75 2.65593e-74 9.19109e-74 3.1516e-73 1.07072e-72 3.6039e-72 1.20168e-71 3.96912e-71 1.29854e-70 4.20764e-70 1.35024e-69 4.29082e-69 1.35018e-68 4.20658e-68 1.29754e-67 3.9621e-67 1.1976e-66 3.58297e-66 1.06091e-65 3.10875e-65 9.01409e-65 2.58613e-64 7.34058e-64 2.06121e-63 5.72516e-63 1.57283e-62 4.27334e-62 1.14815e-61 3.05025e-61 8.01186e-61 2.0804e-60 5.33992e-60 1.35472e-59 3.3966e-59 8.41543e-59 2.06014e-58 4.9826e-58 1.19045e-57 2.80936e-57 6.54788e-57 1.50709e-56 3.42509e-56 7.6851e-56 1.70224e-55 3.72162e-55 8.03032e-55 1.7099e-54 3.59245e-54 7.44632e-54 1.52254e-53 3.07057e-53 6.10714e-53 1.19776e-52 2.31614e-52 4.41535e-52 8.29694e-52 1.53663e-51 2.80456e-51 5.04373e-51 8.93673e-51 1.55989e-50 2.68192e-50 4.54134e-50 7.57288e-50 1.24346e-49 2.01023e-49 3.19936e-49 5.01235e-49 7.72935e-49 1.17309e-48 1.75216e-48 2.57537e-48 3.72482e-48 5.3009e-48 7.42263e-48 1.02263e-47 1.38621e-47 1.84881e-47 2.42617e-47 3.13282e-47 3.98075e-47 4.97797e-47 6.12705e-47 7.4239e-47 8.85686e-47 1.04064e-46 1.20453e-46 1.37398e-46 1.54515e-46 1.71391e-46 1.87619e-46 2.02822e-46 2.1668e-46 2.28954e-46 2.39499e-46 2.48271e-46 2.55328e-46 2.6081e-46 2.64931e-46 2.67947e-46 2.70135e-46 2.71771e-46 2.73104e-46 2.74344e-46 2.75651e-46 2.77134e-46 2.78848e-46 2.80806e-46 2.82988e-46 2.85348e-46 2.87832e-46 2.90382e-46 2.92945e-46 2.95482e-46 2.97963e-46 3.00372e-46 3.02702e-46 3.04949e-46 3.07113e-46 3.09187e-46 3.11157e-46 3.12995e-46 3.14665e-46 3.16117e-46 3.17292e-46 3.1813e-46 3.18569e-46 3.18556e-46 3.1805e-46 3.17031e-46 3.15495e-46 3.13464e-46 3.10978e-46 3.08095e-46 3.04882e-46 3.01413e-46 2.97759e-46 2.9398e-46 2.90125e-46 2.86229e-46 2.8231e-46 2.78375e-46 2.74426e-46 2.70464e-46 2.66501e-46 2.6256e-46 2.58687e-46 2.54944e-46 2.51418e-46 2.48206e-46 2.45413e-46 2.43138e-46 2.41467e-46 2.40457e-46 2.40134e-46 2.40483e-46 2.41448e-46 2.42939e-46 2.44837e-46 2.47004e-46 2.49298e-46 2.51583e-46 2.53745e-46 2.55697e-46 2.57384e-46 2.58788e-46 2.59919e-46 2.60813e-46 2.61518e-46 2.62086e-46 2.62558e-46 2.62958e-46 2.63279e-46 2.63483e-46 2.63497e-46 2.63217e-46 2.62508e-46 2.6122e-46 2.59191e-46 2.56263e-46 2.52292e-46 2.47158e-46 2.40775e-46 2.33096e-46 2.24123e-46 2.13902e-46 2.02529e-46 1.9014e-46 1.76915e-46 1.6306e-46 1.48807e-46 1.34398e-46 1.2008e-46 1.06088e-46 9.26403e-47 7.99285e-47 6.81089e-47 5.72993e-47 4.75762e-47 3.8975e-47 3.14928e-47 2.50928e-47 1.97102e-47 1.52597e-47 1.1642e-47 8.75116e-48 6.48035e-48 4.72687e-48 3.39587e-48 2.40268e-48 1.67412e-48 1.14869e-48 7.76141e-49 5.16411e-49 3.38354e-49 2.18312e-49 1.38717e-49 8.6806e-50 5.35004e-50 3.24773e-50 1.94201e-50 1.14393e-50 6.63848e-51 3.7957e-51 2.13851e-51 1.18732e-51 6.49691e-52 3.50408e-52 1.863e-52 9.76507e-53 5.04668e-53 2.57189e-53 1.29261e-53 6.40765e-54 3.13325e-54 1.5115e-54 7.19428e-55 3.37895e-55 1.56618e-55 7.16502e-56 3.23556e-56 1.44228e-56 6.34375e-57 2.7454e-57 1.14903e-57 4.15195e-58 0 
0 8.31119e-79 3.33123e-78 1.24346e-77 4.58238e-77 1.67356e-76 6.0586e-76 2.17403e-75 7.73201e-75 2.72536e-74 9.51986e-74 3.29521e-73 1.13019e-72 3.84065e-72 1.29304e-71 4.31264e-71 1.42484e-70 4.66278e-70 1.5113e-69 4.85122e-69 1.54209e-68 4.85392e-68 1.51275e-67 4.66763e-67 1.42576e-66 4.31101e-66 1.29021e-65 3.82164e-65 1.12024e-64 3.24943e-64 9.32608e-64 2.64817e-63 7.43891e-63 2.06703e-62 5.68095e-62 1.54414e-61 4.15052e-61 1.10313e-60 2.89878e-60 7.53051e-60 1.93379e-59 4.90823e-59 1.23119e-58 3.05186e-58 7.47471e-58 1.80871e-57 4.32353e-57 1.02084e-56 2.38051e-56 5.48192e-56 1.2465e-55 2.79833e-55 6.20155e-55 1.35658e-54 2.92873e-54 6.23952e-54 1.31162e-53 2.72017e-53 5.56494e-53 1.12292e-52 2.23462e-52 4.38503e-52 8.48403e-52 1.61821e-51 3.04242e-51 5.63767e-51 1.02949e-50 1.85239e-50 3.28381e-50 5.73465e-50 9.86434e-50 1.67113e-49 2.78795e-49 4.57976e-49 7.40696e-49 1.17932e-48 1.84831e-48 2.85122e-48 4.32875e-48 6.4675e-48 9.50875e-48 1.37561e-47 1.9581e-47 2.74235e-47 3.77876e-47 5.12284e-47 6.83295e-47 8.96715e-47 1.15789e-46 1.47123e-46 1.83964e-46 2.26402e-46 2.74278e-46 3.27153e-46 3.84294e-46 4.4469e-46 5.07084e-46 5.70045e-46 6.32052e-46 6.91596e-46 7.47286e-46 7.97948e-46 8.42708e-46 8.81043e-46 9.1281e-46 9.38229e-46 9.57842e-46 9.72444e-46 9.82995e-46 9.90528e-46 9.96062e-46 1.00052e-45 1.00468e-45 1.00913e-45 1.01426e-45 1.02028e-45 1.02723e-45 1.03503e-45 1.04352e-45 1.05247e-45 1.06168e-45 1.07096e-45 1.08015e-45 1.08915e-45 1.09789e-45 1.10634e-45 1.1145e-45 1.12236e-45 1.1299e-45 1.13706e-45 1.14375e-45 1.14982e-45 1.15511e-45 1.15939e-45 1.16244e-45 1.16405e-45 1.16401e-45 1.16218e-45 1.15848e-45 1.1529e-45 1.14552e-45 1.13648e-45 1.12599e-45 1.11431e-45 1.1017e-45 1.08842e-45 1.07469e-45 1.06068e-45 1.04653e-45 1.0323e-45 1.018e-45 1.00366e-45 9.89267e-46 9.74864e-46 9.60538e-46 9.4645e-46 9.32836e-46 9.20003e-46 9.08311e-46 8.9814e-46 8.89858e-46 8.83773e-46 8.801e-46 8.78929e-46 8.80208e-46 8.83737e-46 8.89182e-46 8.96109e-46 9.04014e-46 9.12378e-46 9.20708e-46 9.28583e-46 9.35686e-46 9.41823e-46 9.46923e-46 9.5103e-46 9.54272e-46 9.56831e-46 9.58895e-46 9.6062e-46 9.62091e-46 9.63289e-46 9.64077e-46 9.64189e-46 9.63242e-46 9.6075e-46 9.5616e-46 9.48884e-46 9.38342e-46 9.24004e-46 9.05427e-46 8.82291e-46 8.54422e-46 8.21812e-46 7.84628e-46 7.43206e-46 6.98042e-46 6.49778e-46 5.99169e-46 5.47054e-46 4.94322e-46 4.4187e-46 3.90568e-46 3.4122e-46 2.94532e-46 2.51085e-46 2.11321e-46 1.75529e-46 1.43845e-46 1.16267e-46 9.26646e-47 7.28049e-47 5.6377e-47 4.30184e-47 3.23404e-47 2.39505e-47 1.74707e-47 1.25514e-47 8.88022e-48 6.18708e-48 4.24484e-48 2.86776e-48 1.90778e-48 1.24974e-48 8.06183e-49 5.12131e-49 3.20393e-49 1.97408e-49 1.19799e-49 7.16111e-50 4.21677e-50 2.44619e-50 1.39813e-50 7.87402e-51 4.36997e-51 2.39022e-51 1.28861e-51 6.84816e-52 3.58793e-52 1.85345e-52 9.44136e-53 4.74299e-53 2.35009e-53 1.14864e-53 5.53856e-54 2.63497e-54 1.237e-54 5.73102e-55 2.62065e-55 1.18289e-55 5.27043e-56 2.31712e-56 1.00235e-56 4.19341e-57 1.5148e-57 0 
0 2.94711e-78 1.18143e-77 4.41082e-77 1.62578e-76 5.93882e-76 2.15042e-75 7.71808e-75 2.74557e-74 9.67972e-74 3.38198e-73 1.17093e-72 4.01703e-72 1.36543e-71 4.59824e-71 1.53405e-70 5.06969e-70 1.65953e-69 5.38045e-69 1.72762e-68 5.49338e-68 1.72966e-67 5.39231e-67 1.66436e-66 5.08563e-66 1.53825e-65 4.60534e-65 1.36461e-64 4.0016e-64 1.16117e-63 3.33391e-63 9.4705e-63 2.66141e-62 7.39826e-62 2.03416e-61 5.53143e-61 1.48746e-60 3.95514e-60 1.0398e-59 2.70245e-59 6.94299e-59 1.76307e-58 4.42467e-58 1.09732e-57 2.68894e-57 6.50993e-57 1.55693e-56 3.67801e-56 8.58138e-56 1.9772e-55 4.49827e-55 1.01039e-54 2.24041e-54 4.90357e-54 1.05923e-53 2.2579e-53 4.74903e-53 9.85458e-53 2.0172e-52 4.07269e-52 8.10929e-52 1.5922e-51 3.08227e-51 5.88229e-51 1.10655e-50 2.05158e-50 3.7484e-50 6.7482e-50 1.19691e-49 2.09128e-49 3.59908e-49 6.10022e-49 1.01818e-48 1.67333e-48 2.70749e-48 4.3126e-48 6.76167e-48 1.04345e-47 1.58472e-47 2.36846e-47 3.4832e-47 5.04039e-47 7.17632e-47 1.00525e-46 1.38538e-46 1.87837e-46 2.50562e-46 3.28836e-46 4.24614e-46 5.39497e-46 6.74536e-46 8.30037e-46 1.00539e-45 1.19895e-45 1.408e-45 1.62879e-45 1.85669e-45 2.08642e-45 2.31239e-45 2.52908e-45 2.73138e-45 2.91502e-45 3.07684e-45 3.21498e-45 3.32895e-45 3.41964e-45 3.48907e-45 3.54022e-45 3.57664e-45 3.60215e-45 3.6205e-45 3.63507e-45 3.64872e-45 3.66359e-45 3.6811e-45 3.70199e-45 3.7264e-45 3.75401e-45 3.7842e-45 3.81619e-45 3.84919e-45 3.88248e-45 3.91549e-45 3.94783e-45 3.97926e-45 4.00968e-45 4.03906e-45 4.06736e-45 4.09451e-45 4.12031e-45 4.14443e-45 4.16635e-45 4.18543e-45 4.20091e-45 4.21196e-45 4.21778e-45 4.21768e-45 4.21111e-45 4.19779e-45 4.17768e-45 4.15107e-45 4.11849e-45 4.08069e-45 4.03858e-45 3.99313e-45 3.94526e-45 3.89578e-45 3.84533e-45 3.79435e-45 3.74309e-45 3.69162e-45 3.63996e-45 3.58812e-45 3.53622e-45 3.48458e-45 3.43378e-45 3.38467e-45 3.33836e-45 3.29615e-45 3.25944e-45 3.22953e-45 3.20756e-45 3.19431e-45 3.19011e-45 3.19477e-45 3.20756e-45 3.22728e-45 3.25235e-45 3.28094e-45 3.31119e-45 3.34129e-45 3.36974e-45 3.39538e-45 3.41751e-45 3.43588e-45 3.45065e-45 3.46231e-45 3.47152e-45 3.47896e-45 3.48521e-45 3.49058e-45 3.49502e-45 3.49803e-45 3.49866e-45 3.49553e-45 3.48687e-45 3.47069e-45 3.44485e-45 3.40725e-45 3.35595e-45 3.28934e-45 3.20623e-45 3.10597e-45 2.9885e-45 2.8544e-45 2.70484e-45 2.5416e-45 2.36697e-45 2.18367e-45 1.99473e-45 1.80335e-45 1.61281e-45 1.42627e-45 1.24666e-45 1.07659e-45 9.18194e-46 7.73107e-46 6.42413e-46 5.26645e-46 4.25814e-46 3.3947e-46 2.66781e-46 2.06627e-46 1.57693e-46 1.18565e-46 8.78139e-47 6.40587e-47 4.60215e-47 3.25597e-47 2.26836e-47 1.55612e-47 1.05115e-47 6.99159e-48 4.57913e-48 2.95323e-48 1.87557e-48 1.17305e-48 7.22545e-49 4.38341e-49 2.61933e-49 1.54182e-49 8.94083e-50 5.10817e-50 2.87566e-50 1.59528e-50 8.72187e-51 4.70004e-51 2.49666e-51 1.30748e-51 6.75104e-52 3.43733e-52 1.72598e-52 8.54798e-53 4.17595e-53 2.01262e-53 9.5705e-54 4.49079e-54 2.07959e-54 9.50493e-55 4.28824e-55 1.90976e-55 8.3923e-56 3.62874e-56 1.51748e-56 5.47989e-57 0 
0 1.03563e-77 4.1523e-77 1.55054e-76 5.71629e-76 2.08854e-75 7.56413e-75 2.71545e-74 9.66193e-74 3.40719e-73 1.19072e-72 4.1236e-72 1.41502e-71 4.81108e-71 1.62062e-70 5.40817e-70 1.78779e-69 5.85393e-69 1.8985e-68 6.09782e-68 1.93956e-67 6.10893e-67 1.90512e-66 5.88226e-66 1.79801e-65 5.4404e-65 1.62939e-64 4.82985e-64 1.41685e-63 4.11296e-63 1.18137e-62 3.35725e-62 9.4385e-62 2.62486e-61 7.22021e-61 1.96424e-60 5.28442e-60 1.40577e-59 3.69746e-59 9.61436e-59 2.47127e-58 6.27852e-58 1.57647e-57 3.91165e-57 9.59031e-57 2.32303e-56 5.55878e-56 1.31388e-55 3.06716e-55 7.07083e-55 1.60956e-54 3.61737e-54 8.02564e-54 1.75757e-53 3.79874e-53 8.10227e-53 1.70514e-52 3.54036e-52 7.25124e-52 1.46487e-51 2.91847e-51 5.73356e-51 1.11058e-50 2.12069e-50 3.99164e-50 7.40486e-50 1.35369e-49 2.43837e-49 4.32723e-49 7.56474e-49 1.30256e-48 2.20888e-48 3.68863e-48 6.06495e-48 9.81774e-48 1.56449e-47 2.45395e-47 3.78835e-47 5.75558e-47 8.60491e-47 1.26587e-46 1.83229e-46 2.60936e-46 3.6559e-46 5.03919e-46 6.83326e-46 9.11589e-46 1.19642e-45 1.5449e-45 1.9628e-45 2.45389e-45 3.01918e-45 3.65636e-45 4.35932e-45 5.11803e-45 5.91873e-45 6.74444e-45 7.57588e-45 8.39267e-45 9.17465e-45 9.90338e-45 1.05634e-44 1.11433e-44 1.16366e-44 1.20418e-44 1.23621e-44 1.26053e-44 1.27823e-44 1.29062e-44 1.2991e-44 1.30504e-44 1.30968e-44 1.31404e-44 1.3189e-44 1.32478e-44 1.33194e-44 1.34042e-44 1.35009e-44 1.36074e-44 1.37206e-44 1.38378e-44 1.39561e-44 1.40737e-44 1.41889e-44 1.4301e-44 1.44095e-44 1.45143e-44 1.46154e-44 1.47123e-44 1.48045e-44 1.48907e-44 1.49692e-44 1.50375e-44 1.50929e-44 1.51326e-44 1.51535e-44 1.51533e-44 1.51299e-44 1.50824e-44 1.50105e-44 1.49154e-44 1.4799e-44 1.46639e-44 1.45134e-44 1.43509e-44 1.41799e-44 1.40031e-44 1.38229e-44 1.36409e-44 1.34579e-44 1.32741e-44 1.30897e-44 1.29045e-44 1.27191e-44 1.25346e-44 1.23529e-44 1.21773e-44 1.20116e-44 1.18606e-44 1.17291e-44 1.16221e-44 1.15434e-44 1.1496e-44 1.14811e-44 1.14979e-44 1.15439e-44 1.16147e-44 1.17046e-44 1.18072e-44 1.19157e-44 1.20235e-44 1.21254e-44 1.22172e-44 1.22963e-44 1.23619e-44 1.24146e-44 1.24562e-44 1.2489e-44 1.25156e-44 1.2538e-44 1.25575e-44 1.25738e-44 1.25853e-44 1.25884e-44 1.25782e-44 1.25485e-44 1.24921e-44 1.24012e-44 1.22684e-44 1.20866e-44 1.18499e-44 1.1554e-44 1.11966e-44 1.07772e-44 1.02978e-44 9.76249e-45 9.17759e-45 8.55118e-45 7.89294e-45 7.21372e-45 6.52505e-45 5.83866e-45 5.16602e-45 4.51777e-45 3.90335e-45 3.33061e-45 2.80556e-45 2.33223e-45 1.91265e-45 1.54698e-45 1.23365e-45 9.69747e-46 7.51245e-46 5.7343e-46 4.31203e-46 3.19393e-46 2.33002e-46 1.67395e-46 1.18426e-46 8.24988e-47 5.65888e-47 3.82199e-47 2.54169e-47 1.66433e-47 1.07312e-47 6.81352e-48 4.26016e-48 2.62324e-48 1.59089e-48 9.50302e-49 5.59166e-49 3.24126e-49 1.85108e-49 1.04163e-49 5.77594e-50 3.15647e-50 1.70018e-50 9.02718e-51 4.72521e-51 2.43866e-51 1.24106e-51 6.22866e-52 3.08326e-52 1.50553e-52 7.2524e-53 3.44699e-53 1.61665e-53 7.48268e-54 3.41834e-54 1.54147e-54 6.8616e-55 3.01383e-55 1.30254e-55 5.44469e-56 1.96552e-56 0 