# vtk DataFile Version 3.0
Gray-Scott Simulation Output
ASCII
DATASET STRUCTURED_POINTS
DIMENSIONS 256 256 1
SPACING 1.0 1.0 1.0
ORIGIN 0 0 0
POINT_DATA 65536
SCALARS u double
LOOKUP_TABLE default
0 0 0 0 0 0 0 0 0 0 0 0 0 0 0 0 0 0 0 0 0 0 0 0 0 0 0 0 0 0 0 0 0 0 0 0 0 0 0 0 0 0 0 0 0 0 0 0 0 0 0 0 0 0 0 0 0 0 0 0 0 0 0 0 0 0 0 0 0 0 0 0 0 0 0 0 0 0 0 0 0 0 0 0 0 0 0 0 0 0 0 0 0 0 0 0 0 0 0 0 0 0 0 0 0 0 0 0 0 0 0 0 0 0 0 0 0 0 0 0 0 0 0 0 0 0 0 0 0 0 0 0 0 0 0 0 0 0 0 0 0 0 0 0 0 0 0 0 0 0 0 0 0 0 0 0 0 0 0 0 0 0 0 0 0 0 0 0 0 0 0 0 0 0 0 0 0 0 0 0 0 0 0 0 0 0 0 0 0 0 0 0 0 0 0 0 0 0 0 0 0 0 0 0 0 0 0 0 0 0 0 0 0 0 0 0 0 0 0 0 0 0 0 0 0 0 0 0 0 0 0 0 0 0 0 0 0 0 0 0 0 0 0 0 0 0 0 0 0 0 0 0 0 0 0 0 
0 3.23177e-141 3.61477e-140 3.9703e-139 4.31498e-138 4.64013e-137 4.93667e-136 5.19572e-135 5.40901e-134 5.56936e-133 5.671e-132 5.70995e-131 5.68426e-130 5.59414e-129 5.442e-128 5.23235e-127 4.97157e-126 4.66761e-125 4.32955e-124 3.96717e-123 3.59045e-122 3.20912e-121 2.83225e-120 2.46787e-119 2.12272e-118 1.80209e-117 1.50976e-116 1.248e-115 1.01771e-114 8.18592e-114 6.49333e-113 5.07864e-112 3.91588e-111 2.97599e-110 2.2288e-109 1.64461e-108 1.19542e-107 8.55759e-107 6.03207e-106 4.18571e-105 2.85866e-104 1.92108e-103 1.27004e-102 8.25786e-102 5.27946e-101 3.31795e-100 2.04924e-99 1.24348e-98 7.41114e-98 4.33713e-97 2.49151e-96 1.40452e-95 7.76707e-95 4.21221e-94 2.23941e-93 1.16675e-92 5.95496e-92 2.97629e-91 1.45611e-90 6.97045e-90 3.26356e-89 1.49382e-88 6.68167e-88 2.91909e-87 1.24502e-86 5.1815e-86 2.10308e-85 8.32043e-85 3.20688e-84 1.20341e-83 4.3942e-83 1.56031e-82 5.38427e-82 1.80443e-81 5.86883e-81 1.85119e-80 5.65878e-80 1.67508e-79 4.79794e-79 1.32872e-78 3.55482e-78 9.18007e-78 2.28641e-77 5.48748e-77 1.26804e-76 2.8188e-76 6.0229e-76 1.23597e-75 2.43406e-75 4.59687e-75 8.31987e-75 1.44226e-74 2.39352e-74 3.80142e-74 5.77673e-74 8.39902e-74 1.16856e-73 1.55636e-73 1.9855e-73 2.42843e-73 2.85115e-73 3.21875e-73 3.50193e-73 3.68284e-73 3.75858e-73 3.7414e-73 3.65564e-73 3.53228e-73 3.40278e-73 3.29377e-73 3.22381e-73 3.20236e-73 3.2307e-73 3.30369e-73 3.41177e-73 3.54264e-73 3.68271e-73 3.81865e-73 3.93905e-73 4.03614e-73 4.10691e-73 4.15315e-73 4.18025e-73 4.19523e-73 4.20472e-73 4.21368e-73 4.22527e-73 4.24164e-73 4.26499e-73 4.29824e-73 4.34499e-73 4.40842e-73 4.48965e-73 4.58605e-73 4.6902e-73 4.79011e-73 4.87103e-73 4.9184e-73 4.92122e-73 4.87463e-73 4.78097e-73 4.64897e-73 4.4916e-73 4.32338e-73 4.15802e-73 4.00685e-73 3.87807e-73 3.77647e-73 3.70342e-73 3.65684e-73 3.63135e-73 3.61848e-73 3.60727e-73 3.58532e-73 3.5404e-73 3.46269e-73 3.34726e-73 3.19621e-73 3.01966e-73 2.8349e-73 2.66376e-73 2.52872e-73 2.44866e-73 2.43539e-73 2.49161e-73 2.61047e-73 2.77684e-73 2.96971e-73 3.16549e-73 3.34158e-73 3.47966e-73 3.56811e-73 3.60313e-73 3.58847e-73 3.53405e-73 3.45386e-73 3.36356e-73 3.2783e-73 3.21089e-73 3.1705e-73 3.16214e-73 3.18668e-73 3.24152e-73 3.32129e-73 3.41849e-73 3.52363e-73 3.6251e-73 3.70919e-73 3.76094e-73 3.76597e-73 3.71316e-73 3.5971e-73 3.41949e-73 3.18864e-73 2.91743e-73 2.62047e-73 2.3115e-73 2.00196e-73 1.70072e-73 1.41465e-73 1.14932e-73 9.09483e-74 6.98972e-74 5.20301e-74 3.74225e-74 2.59549e-74 1.73308e-74 1.11278e-74 6.86475e-75 4.06671e-75 2.3129e-75 1.26287e-75 6.62107e-76 3.33432e-76 1.61359e-76 7.50807e-77 3.36112e-77 1.44863e-77 6.01534e-78 2.40835e-78 9.3039e-79 3.47082e-79 1.25128e-79 4.3628e-80 1.47228e-80 4.8123e-81 1.52464e-81 4.68531e-82 1.39756e-82 4.04902e-83 1.14015e-83 3.12231e-84 8.32073e-85 2.1591e-85 5.45828e-86 1.34509e-86 3.2329e-87 7.58226e-88 1.73615e-88 3.88301e-89 8.48674e-90 1.81343e-90 3.78995e-91 7.7504e-92 1.55148e-92 3.04137e-93 5.8406e-94 1.09918e-94 2.02796e-95 3.66924e-96 6.51272e-97 1.13438e-97 1.93951e-98 3.25406e-99 5.23098e-100 0 
0 3.61385e-140 4.04047e-139 4.43602e-138 4.81912e-137 5.18011e-136 5.50888e-135 5.79556e-134 6.03099e-133 6.20723e-132 6.31792e-131 6.35872e-130 6.32753e-129 6.22468e-128 6.05294e-127 5.81741e-126 5.52526e-125 5.18537e-124 4.80789e-123 4.40371e-122 3.98396e-121 3.55943e-120 3.14019e-119 2.73512e-118 2.35167e-117 1.99569e-116 1.6713e-115 1.381e-114 1.12574e-113 9.05137e-113 7.1771e-112 5.61131e-111 4.32496e-110 3.28565e-109 2.4598e-108 1.81439e-107 1.31834e-106 9.43412e-106 6.6475e-105 4.6111e-104 3.14805e-103 2.11481e-102 1.39761e-101 9.08417e-101 5.80572e-100 3.64742e-99 2.25196e-98 1.36602e-97 8.13874e-97 4.76135e-96 2.73429e-95 1.54088e-94 8.51838e-94 4.61817e-93 2.45446e-92 1.27839e-91 6.52275e-91 3.25907e-90 1.59398e-89 7.62815e-89 3.57045e-88 1.63382e-87 7.30577e-87 3.19086e-86 1.36056e-85 5.6608e-85 2.29701e-84 9.08532e-84 3.50079e-83 1.31338e-82 4.79457e-82 1.70207e-81 5.87211e-81 1.96748e-80 6.39774e-80 2.0176e-79 6.1662e-79 1.82493e-78 5.22615e-78 1.44704e-77 3.8707e-77 9.99414e-77 2.48877e-76 5.97226e-76 1.37986e-75 3.06697e-75 6.55236e-75 1.34446e-74 2.64744e-74 4.99938e-74 9.04757e-74 1.56828e-73 2.60248e-73 4.13304e-73 6.28035e-73 9.13086e-73 1.27034e-72 1.69187e-72 2.15835e-72 2.63983e-72 3.09938e-72 3.49905e-72 3.80704e-72 4.00394e-72 4.08658e-72 4.06827e-72 3.97543e-72 3.84172e-72 3.70128e-72 3.58304e-72 3.50715e-72 3.48389e-72 3.51466e-72 3.59387e-72 3.71117e-72 3.85321e-72 4.00525e-72 4.15281e-72 4.28354e-72 4.389e-72 4.46591e-72 4.51622e-72 4.54577e-72 4.56218e-72 4.57263e-72 4.58249e-72 4.5952e-72 4.61308e-72 4.6385e-72 4.67466e-72 4.72543e-72 4.79426e-72 4.88238e-72 4.98693e-72 5.09986e-72 5.20818e-72 5.29589e-72 5.34721e-72 5.3502e-72 5.29959e-72 5.19792e-72 5.05465e-72 4.88385e-72 4.70127e-72 4.5218e-72 4.35774e-72 4.21797e-72 4.10772e-72 4.02844e-72 3.9779e-72 3.95022e-72 3.93621e-72 3.92395e-72 3.89998e-72 3.85103e-72 3.76643e-72 3.64085e-72 3.4766e-72 3.28467e-72 3.08385e-72 2.89785e-72 2.75109e-72 2.66406e-72 2.6496e-72 2.71062e-72 2.83971e-72 3.02042e-72 3.22994e-72 3.44265e-72 3.63402e-72 3.78415e-72 3.88041e-72 3.91864e-72 3.90291e-72 3.844e-72 3.75705e-72 3.6591e-72 3.56658e-72 3.49338e-72 3.4495e-72 3.44035e-72 3.46692e-72 3.52635e-72 3.61286e-72 3.7183e-72 3.83237e-72 3.94246e-72 4.03369e-72 4.08982e-72 4.09525e-72 4.03788e-72 3.91185e-72 3.71899e-72 3.46829e-72 3.17373e-72 2.85113e-72 2.51539e-72 2.17893e-72 1.85139e-72 1.54023e-72 1.25154e-72 9.90513e-73 7.61345e-73 5.66796e-73 4.07711e-73 2.82802e-73 1.88853e-73 1.2127e-73 7.48188e-74 4.43271e-74 2.5213e-74 1.37679e-74 7.21909e-75 3.63587e-75 1.75972e-75 8.18901e-76 3.66642e-76 1.58042e-76 6.56355e-77 2.62822e-77 1.01549e-77 3.78891e-78 1.36619e-78 4.76431e-79 1.60808e-79 5.25718e-80 1.66592e-80 5.12054e-81 1.52771e-81 4.42706e-82 1.24688e-82 3.4154e-83 9.10398e-84 2.36292e-84 5.97504e-85 1.47281e-85 3.5408e-86 8.3066e-87 1.90253e-87 4.25629e-88 9.30519e-89 1.98888e-89 4.15785e-90 8.50524e-91 1.70309e-91 3.33958e-92 6.41525e-93 1.20771e-93 2.22888e-94 4.03405e-95 7.16254e-96 1.24797e-96 2.13442e-97 3.58226e-98 5.76039e-99 0 
0 3.96824e-139 4.43484e-138 4.86694e-137 5.28503e-136 5.67853e-135 6.0364e-134 6.34787e-133 6.60299e-132 6.79312e-131 6.91139e-130 6.95314e-129 6.91618e-128 6.80097e-127 6.61062e-126 6.3508e-125 6.0294e-124 5.6562e-123 5.24232e-122 4.79969e-121 4.34045e-120 3.87639e-119 3.41845e-118 2.9763e-117 2.55803e-116 2.16996e-115 1.81653e-114 1.50042e-113 1.22261e-112 9.82645e-112 7.78869e-111 6.08715e-110 4.68993e-109 3.56157e-108 2.66536e-107 1.96528e-106 1.42745e-105 1.02111e-104 7.19233e-104 4.9872e-103 3.40359e-102 2.28565e-101 1.50998e-100 9.81102e-100 6.26804e-99 3.9365e-98 2.4296e-97 1.47327e-96 8.77474e-96 5.13169e-95 2.94599e-94 1.65962e-93 9.17186e-93 4.97084e-92 2.64106e-91 1.37514e-90 7.01421e-90 3.50355e-89 1.71303e-88 8.19542e-88 3.83484e-87 1.75429e-86 7.84224e-86 3.4242e-85 1.45965e-84 6.07145e-84 2.46299e-83 9.73928e-83 3.75182e-82 1.40721e-81 5.13585e-81 1.8228e-80 6.28716e-80 2.10607e-79 6.84693e-79 2.1588e-78 6.5964e-78 1.95187e-77 5.58863e-77 1.54713e-76 4.1377e-76 1.06818e-75 2.6596e-75 6.38125e-75 1.47415e-74 3.27612e-74 6.99834e-74 1.43581e-73 2.82703e-73 5.33799e-73 9.65954e-73 1.67423e-72 2.77811e-72 4.41171e-72 6.70345e-72 9.7456e-72 1.35582e-71 1.80568e-71 2.30351e-71 2.81736e-71 3.30784e-71 3.73449e-71 4.06337e-71 4.27376e-71 4.3623e-71 4.34316e-71 4.24451e-71 4.10222e-71 3.95271e-71 3.8268e-71 3.74598e-71 3.72122e-71 3.75401e-71 3.83841e-71 3.96339e-71 4.11473e-71 4.27674e-71 4.43401e-71 4.57335e-71 4.68581e-71 4.76787e-71 4.82161e-71 4.85325e-71 4.87089e-71 4.88218e-71 4.89283e-71 4.90652e-71 4.92569e-71 4.95288e-71 4.99148e-71 5.0456e-71 5.11893e-71 5.21277e-71 5.32409e-71 5.4443e-71 5.55959e-71 5.65291e-71 5.70749e-71 5.71059e-71 5.65663e-71 5.54827e-71 5.39561e-71 5.21362e-71 5.01909e-71 4.82787e-71 4.65306e-71 4.50415e-71 4.38669e-71 4.30224e-71 4.24839e-71 4.21889e-71 4.20391e-71 4.19076e-71 4.16507e-71 4.11268e-71 4.02226e-71 3.88814e-71 3.71279e-71 3.50794e-71 3.29364e-71 3.09519e-71 2.9386e-71 2.84572e-71 2.83025e-71 2.89527e-71 3.0329e-71 3.2256e-71 3.44906e-71 3.67596e-71 3.88015e-71 4.0404e-71 4.14323e-71 4.18421e-71 4.16766e-71 4.10504e-71 4.01251e-71 3.90819e-71 3.80962e-71 3.7316e-71 3.68479e-71 3.67497e-71 3.70319e-71 3.76644e-71 3.85854e-71 3.97083e-71 4.09232e-71 4.20957e-71 4.30674e-71 4.36651e-71 4.37224e-71 4.31106e-71 4.17671e-71 3.97111e-71 3.70384e-71 3.38975e-71 3.04569e-71 2.68751e-71 2.32846e-71 1.9788e-71 1.6465e-71 1.33811e-71 1.05919e-71 8.14238e-72 6.06247e-72 4.36137e-72 3.02551e-72 2.0206e-72 1.29763e-72 8.00661e-73 4.74403e-73 2.69862e-73 1.47377e-73 7.72835e-74 3.89277e-74 1.88427e-74 8.76964e-75 3.92687e-75 1.69292e-75 7.03171e-76 2.8161e-76 1.08825e-76 4.06105e-77 1.46457e-77 5.10828e-78 1.72449e-78 5.63885e-79 1.78722e-79 5.49452e-80 1.63963e-80 4.75245e-81 1.33883e-81 3.66812e-82 9.77993e-83 2.53898e-83 6.42185e-84 1.58336e-84 3.80755e-85 8.93477e-86 2.04696e-86 4.58067e-87 1.00172e-87 2.14168e-88 4.47858e-89 9.16403e-90 1.83556e-90 3.60043e-91 6.91847e-92 1.30284e-92 2.40523e-93 4.35461e-94 7.7342e-95 1.34801e-95 2.30628e-96 3.87199e-97 6.22829e-98 0 
0 4.31156e-138 4.81653e-137 5.28359e-136 5.73506e-135 6.15948e-134 6.54492e-133 6.87976e-132 7.15328e-131 7.35619e-130 7.48117e-129 7.52326e-128 7.4802e-127 7.35257e-126 7.14387e-125 6.86028e-124 6.51046e-123 6.10501e-122 5.65602e-121 5.17638e-120 4.67922e-119 4.17727e-118 3.68232e-117 3.20478e-116 2.75332e-115 2.3347e-114 1.95368e-113 1.61307e-112 1.3139e-111 1.05561e-110 8.36381e-110 6.53414e-109 5.03241e-108 3.82021e-107 2.85785e-106 2.10642e-105 1.5294e-104 1.09364e-103 7.70038e-103 5.33755e-102 3.64137e-101 2.44445e-100 1.61432e-99 1.04853e-98 6.69646e-98 4.2041e-97 2.59386e-96 1.57235e-95 9.36166e-95 5.4731e-94 3.14094e-93 1.76887e-92 9.77245e-92 5.29464e-91 2.81221e-90 1.4638e-89 7.46412e-89 3.72714e-88 1.8218e-87 8.71324e-87 4.07595e-86 1.86406e-85 8.33057e-85 3.63642e-84 1.54969e-83 6.44426e-83 2.61354e-82 1.0332e-81 3.97914e-81 1.4921e-80 5.44441e-80 1.93186e-79 6.66184e-79 2.2311e-78 7.25185e-78 2.286e-77 6.9837e-77 2.06607e-76 5.91455e-76 1.63707e-75 4.37751e-75 1.12991e-74 2.81287e-74 6.74803e-74 1.55868e-73 3.46353e-73 7.39781e-73 1.5176e-72 2.98778e-72 5.64102e-72 1.02071e-71 1.769e-71 2.93517e-71 4.66086e-71 7.08171e-71 1.02951e-70 1.43223e-70 1.9074e-70 2.43324e-70 2.97604e-70 3.49418e-70 3.94496e-70 4.29254e-70 4.51506e-70 4.60895e-70 4.58916e-70 4.48542e-70 4.33557e-70 4.17802e-70 4.04533e-70 3.96014e-70 3.93406e-70 3.96864e-70 4.05765e-70 4.18944e-70 4.34904e-70 4.5199e-70 4.68577e-70 4.83278e-70 4.95146e-70 5.03812e-70 5.09493e-70 5.12845e-70 5.14723e-70 5.15929e-70 5.17069e-70 5.18527e-70 5.20562e-70 5.2344e-70 5.27518e-70 5.33229e-70 5.40961e-70 5.50851e-70 5.6258e-70 5.75244e-70 5.87388e-70 5.97217e-70 6.02961e-70 6.0328e-70 5.97584e-70 5.86155e-70 5.70055e-70 5.50864e-70 5.3035e-70 5.10185e-70 4.91752e-70 4.7605e-70 4.63665e-70 4.54761e-70 4.49084e-70 4.45972e-70 4.44388e-70 4.42991e-70 4.40265e-70 4.34717e-70 4.25153e-70 4.10975e-70 3.92446e-70 3.70808e-70 3.48175e-70 3.27218e-70 3.10681e-70 3.00871e-70 2.99231e-70 3.0609e-70 3.20612e-70 3.4095e-70 3.64537e-70 3.88493e-70 4.10055e-70 4.26985e-70 4.37858e-70 4.42206e-70 4.40483e-70 4.33896e-70 4.24149e-70 4.13154e-70 4.0276e-70 3.9453e-70 3.89587e-70 3.88544e-70 3.91511e-70 3.98172e-70 4.07877e-70 4.19711e-70 4.32518e-70 4.44878e-70 4.55121e-70 4.61419e-70 4.6202e-70 4.55562e-70 4.41387e-70 4.19694e-70 3.91492e-70 3.58345e-70 3.22026e-70 2.84207e-70 2.46283e-70 2.09338e-70 1.74215e-70 1.41608e-70 1.12107e-70 8.61925e-71 6.41832e-71 4.61788e-71 3.20378e-71 2.13987e-71 1.37435e-71 8.48075e-72 5.02541e-72 2.85895e-72 1.56147e-72 8.18904e-73 4.12524e-73 1.99701e-73 9.29541e-74 4.1628e-74 1.79486e-74 7.45613e-75 2.9865e-75 1.15427e-75 4.3081e-76 1.55392e-76 5.42087e-77 1.83035e-77 5.98609e-78 1.89765e-78 5.83518e-79 1.74165e-79 5.04923e-80 1.42275e-80 3.89894e-81 1.03978e-81 2.70003e-82 6.83087e-83 1.68463e-83 4.05212e-84 9.51118e-85 2.1796e-85 4.87882e-86 1.06722e-86 2.28236e-87 4.77413e-88 9.77165e-89 1.95784e-89 3.84145e-90 7.38385e-91 1.39091e-91 2.56862e-92 4.65189e-93 8.26485e-94 1.44097e-94 2.46612e-95 4.14171e-96 6.66426e-97 0 
0 4.63515e-137 5.17587e-136 5.67538e-135 6.15775e-134 6.61069e-133 7.02143e-132 7.37758e-131 7.6677e-130 7.88195e-129 8.01255e-128 8.05432e-127 8.00493e-126 7.86514e-125 7.63877e-124 7.33256e-123 6.95584e-122 6.52003e-121 6.03808e-120 5.52383e-119 4.99131e-118 4.45411e-117 3.92481e-116 3.41448e-115 2.93232e-114 2.48551e-113 2.07907e-112 1.71594e-111 1.39715e-110 1.12206e-109 8.88697e-109 6.94022e-108 5.34315e-107 4.05458e-106 3.03204e-105 2.23399e-104 1.62142e-103 1.15902e-102 8.15775e-102 5.65254e-101 3.85488e-100 2.58686e-99 1.70776e-98 1.10883e-97 7.07914e-97 4.44282e-96 2.74022e-95 1.6605e-94 9.88321e-94 5.7761e-93 3.31374e-92 1.86558e-91 1.03034e-90 5.58056e-90 2.96314e-89 1.54188e-88 7.85988e-88 3.92358e-87 1.91725e-86 9.16708e-86 4.28701e-85 1.96003e-84 8.75704e-84 3.82154e-83 1.62815e-82 6.76872e-82 2.74443e-81 1.08467e-80 4.17635e-80 1.56568e-79 5.71153e-79 2.02619e-78 6.98558e-78 2.33902e-77 7.60106e-77 2.39561e-76 7.31713e-76 2.16432e-75 6.19469e-75 1.71432e-74 4.58333e-74 1.18285e-73 2.94425e-73 7.06223e-73 1.63104e-72 3.6239e-72 7.73949e-72 1.58753e-71 3.12515e-71 5.89988e-71 1.06746e-70 1.84991e-70 3.06923e-70 4.87349e-70 7.40444e-70 1.07639e-69 1.4974e-69 1.99416e-69 2.5439e-69 3.11138e-69 3.65312e-69 4.12452e-69 4.4881e-69 4.72104e-69 4.81958e-69 4.79935e-69 4.69138e-69 4.53518e-69 4.37089e-69 4.23248e-69 4.14362e-69 4.11642e-69 4.15252e-69 4.24542e-69 4.38297e-69 4.54954e-69 4.72787e-69 4.90103e-69 5.05453e-69 5.17848e-69 5.26905e-69 5.32849e-69 5.36364e-69 5.38341e-69 5.39618e-69 5.40824e-69 5.42361e-69 5.44499e-69 5.47514e-69 5.51777e-69 5.57741e-69 5.65809e-69 5.76126e-69 5.88357e-69 6.01562e-69 6.14221e-69 6.24465e-69 6.30448e-69 6.30773e-69 6.24823e-69 6.12892e-69 5.96089e-69 5.76059e-69 5.5465e-69 5.33604e-69 5.14367e-69 4.9798e-69 4.85056e-69 4.75766e-69 4.69843e-69 4.66594e-69 4.64936e-69 4.63467e-69 4.60605e-69 4.54791e-69 4.44778e-69 4.29945e-69 4.10568e-69 3.87946e-69 3.64288e-69 3.42384e-69 3.251e-69 3.14846e-69 3.13126e-69 3.20285e-69 3.35452e-69 3.56696e-69 3.81337e-69 4.06368e-69 4.28904e-69 4.46606e-69 4.57985e-69 4.62551e-69 4.60775e-69 4.53918e-69 4.43757e-69 4.32288e-69 4.21441e-69 4.12848e-69 4.07683e-69 4.06586e-69 4.09673e-69 4.16616e-69 4.26736e-69 4.3908e-69 4.52441e-69 4.65336e-69 4.76022e-69 4.82591e-69 4.83213e-69 4.76468e-69 4.61665e-69 4.39013e-69 4.09561e-69 3.74939e-69 3.36996e-69 2.97474e-69 2.57829e-69 2.19193e-69 1.8245e-69 1.48326e-69 1.17443e-69 9.03079e-70 6.72561e-70 4.83952e-70 3.35789e-70 2.24302e-70 1.44073e-70 8.89114e-71 5.26905e-71 2.99782e-71 1.63747e-71 8.5884e-72 4.32684e-72 2.09482e-72 9.75173e-73 4.36766e-73 1.88342e-73 7.82503e-74 3.13469e-74 1.21172e-74 4.52321e-75 1.63177e-75 5.69339e-76 1.9227e-76 6.28927e-77 1.99413e-77 6.13307e-78 1.83093e-78 5.30919e-79 1.49633e-79 4.10147e-80 1.09404e-80 2.8416e-81 7.19078e-82 1.77383e-82 4.26775e-83 1.00199e-83 2.29678e-84 5.14252e-85 1.12521e-85 2.40705e-86 5.03638e-87 1.03114e-87 2.06659e-88 4.05603e-89 7.79865e-90 1.4695e-90 2.71458e-91 4.91778e-92 8.74001e-93 1.5243e-93 2.60959e-94 4.38409e-95 7.05647e-96 0 
0 4.92994e-136 5.50277e-135 6.0313e-134 6.54118e-133 7.01939e-132 7.45243e-131 7.82718e-130 8.13162e-129 8.35538e-128 8.49034e-127 8.5311e-126 8.47532e-125 8.32392e-124 8.08106e-123 7.75398e-122 7.35264e-121 6.8892e-120 6.37741e-119 5.83193e-118 5.26762e-117 4.69883e-116 4.13881e-115 3.59924e-114 3.08979e-113 2.61797e-112 2.18902e-111 1.80599e-110 1.4699e-109 1.18004e-108 9.34263e-108 7.29331e-107 5.61288e-106 4.25767e-105 3.18274e-104 2.34416e-103 1.70076e-102 1.21529e-101 8.55071e-101 5.92269e-100 4.03768e-99 2.70858e-98 1.78749e-97 1.16019e-96 7.40449e-96 4.64542e-95 2.86421e-94 1.73505e-93 1.03235e-92 6.03145e-92 3.45911e-91 1.9468e-90 1.07486e-89 5.81981e-89 3.08922e-88 1.607e-87 8.18934e-87 4.08683e-86 1.99644e-85 9.54294e-85 4.46152e-84 2.03925e-83 9.10848e-83 3.97383e-82 1.69259e-81 7.03481e-81 2.8516e-80 1.12674e-79 4.33732e-79 1.62564e-78 5.92893e-78 2.10284e-77 7.2483e-77 2.42648e-76 7.88371e-76 2.48421e-75 7.58634e-75 2.24354e-74 6.42035e-74 1.77647e-73 4.74877e-73 1.22537e-72 3.04965e-72 7.3141e-72 1.689e-71 3.75225e-71 8.01275e-71 1.64342e-70 3.23489e-70 6.10656e-70 1.10478e-69 1.91445e-69 3.17613e-69 5.04299e-69 7.66165e-69 1.11374e-68 1.54933e-68 2.06327e-68 2.63204e-68 3.21919e-68 3.77976e-68 4.2676e-68 4.64399e-68 4.88531e-68 4.98767e-68 4.96722e-68 4.85602e-68 4.69491e-68 4.52536e-68 4.38249e-68 4.29076e-68 4.26269e-68 4.29998e-68 4.39593e-68 4.53799e-68 4.71003e-68 4.89424e-68 5.07312e-68 5.23172e-68 5.35984e-68 5.45351e-68 5.51505e-68 5.55153e-68 5.57212e-68 5.58549e-68 5.59813e-68 5.61417e-68 5.63639e-68 5.66765e-68 5.71175e-68 5.77338e-68 5.8567e-68 5.96319e-68 6.08941e-68 6.22566e-68 6.35626e-68 6.46192e-68 6.52359e-68 6.52685e-68 6.46534e-68 6.34209e-68 6.16853e-68 5.96167e-68 5.74055e-68 5.52319e-68 5.32451e-68 5.15528e-68 5.02183e-68 4.9259e-68 4.86474e-68 4.83118e-68 4.814e-68 4.79873e-68 4.76899e-68 4.70869e-68 4.60495e-68 4.45138e-68 4.25086e-68 4.0168e-68 3.77208e-68 3.54552e-68 3.36675e-68 3.26066e-68 3.24282e-68 3.31677e-68 3.47352e-68 3.69311e-68 3.94787e-68 4.2067e-68 4.43979e-68 4.62296e-68 4.74082e-68 4.78826e-68 4.77016e-68 4.69951e-68 4.59469e-68 4.4763e-68 4.36428e-68 4.2755e-68 4.22209e-68 4.21066e-68 4.24245e-68 4.31406e-68 4.4185e-68 4.54592e-68 4.68385e-68 4.81699e-68 4.92732e-68 4.99512e-68 5.00149e-68 4.93176e-68 4.77879e-68 4.54471e-68 4.24033e-68 3.88246e-68 3.49016e-68 3.08143e-68 2.67128e-68 2.27143e-68 1.89102e-68 1.5376e-68 1.21765e-68 9.36444e-69 6.97497e-69 5.01952e-69 3.48314e-69 2.32691e-69 1.49475e-69 9.22529e-70 5.46753e-70 3.11101e-70 1.69944e-70 8.91423e-71 4.49141e-71 2.17471e-71 1.01247e-71 4.53521e-72 1.95589e-72 8.12716e-73 3.25615e-73 1.25885e-73 4.6998e-74 1.69574e-74 5.91753e-75 1.99873e-75 6.53913e-76 2.07373e-76 6.37911e-77 1.90476e-77 5.5244e-78 1.55731e-78 4.26956e-79 1.13913e-79 2.9594e-80 7.49064e-81 1.84825e-81 4.44791e-82 1.04455e-82 2.39496e-83 5.36377e-84 1.17393e-84 2.51197e-85 5.2574e-86 1.0767e-86 2.15852e-87 4.23769e-88 8.15037e-89 1.53624e-89 2.83873e-90 5.14429e-91 9.14545e-92 1.59552e-92 2.73239e-93 4.59188e-94 7.39322e-95 0 
0 5.18708e-135 5.78739e-134 6.34062e-133 6.87377e-132 7.37323e-131 7.82484e-130 8.21493e-129 8.53093e-128 8.76207e-127 8.89994e-126 8.93901e-125 8.87694e-124 8.71483e-123 8.45714e-122 8.11157e-121 7.68863e-120 7.20113e-119 6.6635e-118 6.09114e-117 5.49956e-116 4.90379e-115 4.31765e-114 3.75329e-113 3.22079e-112 2.72791e-111 2.28006e-110 1.88038e-109 1.52987e-108 1.22772e-107 9.71641e-107 7.58226e-106 5.83308e-105 4.42306e-104 3.30515e-103 2.43342e-102 1.76488e-101 1.26065e-100 8.86671e-100 6.13938e-99 4.18393e-98 2.8057e-97 1.85093e-96 1.20096e-95 7.66205e-95 4.80538e-94 2.96184e-93 1.7936e-92 1.06683e-91 6.23089e-91 3.57234e-90 2.00988e-89 1.10934e-88 6.00465e-88 3.18635e-87 1.65703e-86 8.44177e-86 4.21156e-85 2.05678e-84 9.82857e-84 4.59378e-83 2.09912e-82 9.37338e-82 4.08832e-81 1.7409e-80 7.23379e-80 2.93153e-79 1.15805e-78 4.45677e-78 1.67003e-77 6.08947e-77 2.15931e-76 7.44139e-76 2.49062e-75 8.0905e-75 2.54889e-74 7.78246e-74 2.30115e-73 6.5841e-73 1.82149e-72 4.86839e-72 1.25606e-71 3.12561e-71 7.49533e-71 1.73065e-70 3.84436e-70 8.20862e-70 1.68344e-69 3.31338e-69 6.25426e-69 1.13142e-68 1.9605e-68 3.25237e-68 5.1638e-68 7.84489e-68 1.14035e-67 1.5863e-67 2.11247e-67 2.69479e-67 3.29594e-67 3.86993e-67 4.36953e-67 4.75511e-67 5.00251e-67 5.10773e-67 5.08728e-67 4.97396e-67 4.80953e-67 4.63639e-67 4.49046e-67 4.39676e-67 4.3681e-67 4.40622e-67 4.50427e-67 4.64946e-67 4.82528e-67 5.01356e-67 5.19642e-67 5.35857e-67 5.4896e-67 5.58546e-67 5.64851e-67 5.68596e-67 5.70719e-67 5.72105e-67 5.73414e-67 5.7507e-67 5.77356e-67 5.80562e-67 5.85078e-67 5.9138e-67 5.99893e-67 6.10769e-67 6.23658e-67 6.37568e-67 6.50901e-67 6.61684e-67 6.67974e-67 6.68298e-67 6.62006e-67 6.49407e-67 6.31669e-67 6.10528e-67 5.8793e-67 5.65717e-67 5.45413e-67 5.28121e-67 5.14484e-67 5.04683e-67 4.98435e-67 4.95004e-67 4.93244e-67 4.91673e-67 4.88615e-67 4.82427e-67 4.71792e-67 4.56059e-67 4.35524e-67 4.11562e-67 3.86512e-67 3.63324e-67 3.45027e-67 3.34166e-67 3.32335e-67 3.39894e-67 3.55924e-67 3.78386e-67 4.04448e-67 4.30932e-67 4.54788e-67 4.73543e-67 4.85621e-67 4.905e-67 4.88674e-67 4.81474e-67 4.70773e-67 4.5868e-67 4.47233e-67 4.38156e-67 4.32691e-67 4.31514e-67 4.34752e-67 4.42061e-67 4.52725e-67 4.6574e-67 4.7983e-67 4.93432e-67 5.04703e-67 5.11628e-67 5.12274e-67 5.05141e-67 4.89499e-67 4.65563e-67 4.34435e-67 3.97832e-67 3.57697e-67 3.15868e-67 2.7388e-67 2.3293e-67 1.93956e-67 1.57735e-67 1.24932e-67 9.60941e-68 7.15834e-68 5.15208e-68 3.57549e-68 2.38883e-68 1.53466e-68 9.47241e-69 5.61446e-69 3.19487e-69 1.74539e-69 9.15605e-70 4.61366e-70 2.23411e-70 1.04023e-70 4.66004e-71 2.00995e-71 8.35277e-72 3.34696e-72 1.29413e-72 4.8322e-73 1.74376e-73 6.08608e-74 2.05599e-74 6.72762e-75 2.13389e-75 6.56537e-76 1.96075e-76 5.68792e-77 1.60374e-77 4.39778e-78 1.1736e-78 3.04963e-79 7.72082e-80 1.90549e-80 4.58679e-81 1.07744e-81 2.47099e-82 5.53548e-83 1.21184e-83 2.59378e-84 5.43011e-85 1.11238e-85 2.23069e-86 4.38065e-87 8.42779e-88 1.589e-88 2.93712e-89 5.32423e-90 9.46827e-91 1.65236e-91 2.83063e-92 4.7585e-93 7.66385e-94 0 
0 5.39836e-134 6.02065e-133 6.59341e-132 7.14485e-131 7.66083e-130 8.12669e-129 8.5283e-128 8.85271e-127 9.08884e-126 9.22808e-125 9.26481e-124 9.19675e-123 9.02513e-122 8.75474e-121 8.39363e-120 7.9528e-119 7.44557e-118 6.88696e-117 6.29291e-116 5.6795e-115 5.06225e-114 4.45543e-113 3.87155e-112 3.32098e-111 2.81168e-110 2.34919e-109 1.93665e-108 1.57505e-107 1.2635e-106 9.99582e-106 7.79738e-105 5.99635e-104 4.54519e-103 3.39516e-102 2.49879e-101 1.81163e-100 1.29358e-99 9.09506e-99 6.29527e-98 4.28866e-97 2.87492e-96 1.89595e-95 1.22975e-94 7.84305e-94 4.91724e-93 3.02977e-92 1.83413e-91 1.09059e-90 6.36758e-90 3.64954e-89 2.05267e-88 1.1326e-87 6.1287e-87 3.2512e-86 1.69024e-85 8.60846e-85 4.29348e-84 2.09619e-83 1.00141e-82 4.67919e-82 2.13757e-81 9.54256e-81 4.16103e-80 1.77141e-79 7.35874e-79 2.98144e-78 1.17749e-77 4.53054e-77 1.69729e-76 6.18753e-76 2.19362e-75 7.5581e-75 2.52918e-74 8.21421e-74 2.5874e-73 7.89864e-73 2.33511e-72 6.68021e-72 1.8478e-71 4.938e-71 1.27384e-70 3.16946e-70 7.5996e-70 1.75453e-69 3.897e-69 8.32025e-69 1.70619e-68 3.35789e-68 6.33782e-68 1.14646e-67 1.98646e-67 3.29527e-67 5.23169e-67 7.94776e-67 1.15527e-66 1.60702e-66 2.14004e-66 2.72994e-66 3.33895e-66 3.92049e-66 4.42674e-66 4.81759e-66 5.06854e-66 5.17556e-66 5.15535e-66 5.04109e-66 4.87505e-66 4.70011e-66 4.55264e-66 4.45794e-66 4.42898e-66 4.46753e-66 4.56668e-66 4.71349e-66 4.89129e-66 5.08169e-66 5.26662e-66 5.43066e-66 5.56325e-66 5.66031e-66 5.72422e-66 5.76226e-66 5.78392e-66 5.79811e-66 5.81154e-66 5.82846e-66 5.85172e-66 5.88426e-66 5.93e-66 5.99376e-66 6.07983e-66 6.18974e-66 6.31995e-66 6.46046e-66 6.59512e-66 6.704e-66 6.76748e-66 6.77066e-66 6.70698e-66 6.57956e-66 6.40019e-66 6.18642e-66 5.95792e-66 5.73332e-66 5.52802e-66 5.35318e-66 5.21532e-66 5.11625e-66 5.05309e-66 5.0184e-66 5.00056e-66 4.98456e-66 4.95346e-66 4.89063e-66 4.78276e-66 4.62328e-66 4.41521e-66 4.17249e-66 3.91879e-66 3.68397e-66 3.49867e-66 3.38867e-66 3.37006e-66 3.44651e-66 3.60871e-66 3.83604e-66 4.09985e-66 4.36797e-66 4.60955e-66 4.79956e-66 4.92203e-66 4.97166e-66 4.95346e-66 4.88084e-66 4.77276e-66 4.65054e-66 4.5348e-66 4.44299e-66 4.38765e-66 4.37566e-66 4.4083e-66 4.4821e-66 4.58985e-66 4.72137e-66 4.86378e-66 5.00127e-66 5.11519e-66 5.18517e-66 5.19165e-66 5.11947e-66 4.96121e-66 4.71903e-66 4.40407e-66 4.03364e-66 3.62737e-66 3.20382e-66 2.7785e-66 2.36354e-66 1.96846e-66 1.60113e-66 1.26837e-66 9.75731e-67 7.26946e-67 5.23265e-67 3.63179e-67 2.42667e-67 1.55911e-67 9.62407e-68 5.7048e-68 3.24653e-68 1.77376e-68 9.3056e-69 4.68941e-69 2.27099e-69 1.0575e-69 4.73788e-70 2.04374e-70 8.49415e-71 3.40402e-71 1.31636e-71 4.91586e-72 1.77421e-72 6.19325e-73 2.09253e-73 6.84829e-74 2.17254e-74 6.68548e-75 1.997e-75 5.79418e-76 1.63402e-76 4.48176e-77 1.19626e-77 3.10921e-78 7.87345e-79 1.94361e-79 4.67967e-80 1.09952e-80 2.52227e-81 5.65181e-82 1.23763e-82 2.64968e-83 5.54865e-84 1.13698e-84 2.28066e-85 4.48006e-86 8.62155e-87 1.62601e-87 3.00643e-88 5.45151e-89 9.69761e-90 1.6929e-90 2.901e-91 4.87835e-92 7.85929e-93 0 
0 5.55663e-133 6.19461e-132 6.78111e-131 7.3452e-130 7.87238e-129 8.34766e-128 8.75659e-127 9.08595e-126 9.32449e-125 9.46348e-124 9.49729e-123 9.4237e-122 9.24412e-121 8.96356e-120 8.5904e-119 8.13598e-118 7.61404e-117 7.04001e-116 6.43021e-115 5.80114e-114 5.16865e-113 4.5473e-112 3.94986e-111 3.38684e-110 2.86634e-109 2.39394e-108 1.97279e-107 1.60384e-106 1.28611e-105 1.01709e-104 7.93102e-104 6.09687e-103 4.61968e-102 3.44956e-101 2.5379e-100 1.83933e-99 1.31288e-98 9.22754e-98 6.38472e-97 4.34808e-96 2.91375e-95 1.92089e-94 1.2455e-93 7.94087e-93 4.97692e-92 3.06553e-91 1.85517e-90 1.10274e-89 6.43649e-89 3.68788e-88 2.07359e-87 1.14379e-86 6.18736e-86 3.28134e-85 1.70541e-84 8.68318e-84 4.32951e-83 2.11318e-82 1.00925e-81 4.71455e-81 2.15315e-80 9.60962e-80 4.18921e-79 1.78296e-78 7.40492e-78 2.99944e-77 1.18432e-76 4.55581e-76 1.70639e-75 6.21937e-75 2.20446e-74 7.59393e-74 2.54069e-73 8.25007e-73 2.59823e-72 7.93039e-72 2.34412e-71 6.70496e-71 1.85438e-70 4.9549e-70 1.27804e-69 3.17952e-69 7.62285e-69 1.75972e-68 3.90814e-68 8.34329e-68 1.71077e-67 3.36667e-67 6.35397e-67 1.14932e-66 1.99131e-66 3.30316e-66 5.24403e-66 7.96626e-66 1.15793e-65 1.61069e-65 2.14491e-65 2.73614e-65 3.34654e-65 3.92947e-65 4.43701e-65 4.82897e-65 5.08083e-65 5.18854e-65 5.1688e-65 5.05483e-65 4.88894e-65 4.71408e-65 4.56663e-65 4.47194e-65 4.44299e-65 4.48157e-65 4.58076e-65 4.72762e-65 4.90549e-65 5.09598e-65 5.28102e-65 5.44518e-65 5.57793e-65 5.67515e-65 5.73923e-65 5.77747e-65 5.79932e-65 5.81371e-65 5.82732e-65 5.84442e-65 5.86785e-65 5.90052e-65 5.94636e-65 6.01017e-65 6.09625e-65 6.20613e-65 6.33628e-65 6.47669e-65 6.61124e-65 6.72001e-65 6.78338e-65 6.78647e-65 6.72271e-65 6.59521e-65 6.41577e-65 6.20192e-65 5.97335e-65 5.74867e-65 5.54332e-65 5.36844e-65 5.23056e-65 5.13149e-65 5.06833e-65 5.03362e-65 5.01573e-65 4.99962e-65 4.96833e-65 4.90522e-65 4.79697e-65 4.63704e-65 4.42847e-65 4.18522e-65 3.93102e-65 3.69575e-65 3.51011e-65 3.39987e-65 3.38117e-65 3.45766e-65 3.62003e-65 3.84765e-65 4.11184e-65 4.38039e-65 4.62242e-65 4.81286e-65 4.93573e-65 4.98569e-65 4.96773e-65 4.89527e-65 4.78728e-65 4.66508e-65 4.54931e-65 4.45742e-65 4.40199e-65 4.3899e-65 4.42245e-65 4.49618e-65 4.60387e-65 4.73536e-65 4.87776e-65 5.01525e-65 5.12917e-65 5.19913e-65 5.20556e-65 5.13329e-65 4.97487e-65 4.73247e-65 4.41718e-65 4.04629e-65 3.63942e-65 3.21512e-65 2.78888e-65 2.37286e-65 1.97661e-65 1.60806e-65 1.27407e-65 9.80259e-66 7.30415e-66 5.25823e-66 3.64992e-66 2.43901e-66 1.56717e-66 9.67461e-67 5.7352e-67 3.26407e-67 1.78347e-67 9.35729e-68 4.71583e-68 2.28398e-68 1.06364e-68 4.76583e-69 2.05601e-69 8.54604e-70 3.4252e-70 1.32471e-70 4.94768e-71 1.78593e-71 6.23507e-72 2.10697e-72 6.89667e-73 2.18824e-73 6.73498e-74 2.01215e-74 5.83923e-75 1.64705e-75 4.51839e-76 1.2063e-76 3.13596e-77 7.94293e-78 1.96121e-78 4.72314e-79 1.11e-79 2.54694e-80 5.70851e-81 1.25037e-81 2.67766e-82 5.60872e-83 1.1496e-83 2.30661e-84 4.53232e-85 8.72462e-86 1.64593e-86 3.04416e-87 5.52157e-88 9.82522e-89 1.71571e-89 2.941e-90 4.94716e-91 7.97255e-92 0 