# vtk DataFile Version 3.0
Gray-Scott Simulation Output
ASCII
DATASET STRUCTURED_POINTS
DIMENSIONS 256 256 1
SPACING 1.0 1.0 1.0
ORIGIN 0 0 0
POINT_DATA 65536
SCALARS u double
LOOKUP_TABLE default
0 0 0 0 0 0 0 0 0 0 0 0 0 0 0 0 0 0 0 0 0 0 0 0 0 0 0 0 0 0 0 0 0 0 0 0 0 0 0 0 0 0 0 0 0 0 0 0 0 0 0 0 0 0 0 0 0 0 0 0 0 0 0 0 0 0 0 0 0 0 0 0 0 0 0 0 0 0 0 0 0 0 0 0 0 0 0 0 0 0 0 0 0 0 0 0 0 0 0 0 0 0 0 0 0 0 0 0 0 0 0 0 0 0 0 0 0 0 0 0 0 0 0 0 0 0 0 0 0 0 0 0 0 0 0 0 0 0 0 0 0 0 0 0 0 0 0 0 0 0 0 0 0 0 0 0 0 0 0 0 0 0 0 0 0 0 0 0 0 0 0 0 0 0 0 0 0 0 0 0 0 0 0 0 0 0 0 0 0 0 0 0 0 0 0 0 0 0 0 0 0 0 0 0 0 0 0 0 0 0 0 0 0 0 0 0 0 0 0 0 0 0 0 0 0 0 0 0 0 0 0 0 0 0 0 0 0 0 0 0 0 0 0 0 0 0 0 0 0 0 0 0 0 0 0 0 
0 4.40769e-163 6.83402e-162 1.0441e-160 1.57804e-159 2.35918e-158 3.48843e-157 5.10123e-156 7.3765e-155 1.05465e-153 1.49073e-152 2.08293e-151 2.8766e-150 3.92614e-149 5.29512e-148 7.05599e-147 9.28869e-146 1.20784e-144 1.55118e-143 1.96722e-142 2.46333e-141 3.04514e-140 3.71571e-139 4.47466e-138 5.31736e-137 6.23418e-136 7.21006e-135 8.22437e-134 9.25113e-133 1.02598e-131 1.12165e-130 1.20857e-129 1.28319e-128 1.34227e-127 1.383e-126 1.40331e-125 1.40197e-124 1.37874e-123 1.3344e-122 1.27072e-121 1.19034e-120 1.09658e-119 9.93223e-119 8.84254e-118 7.73594e-117 6.64865e-116 5.61193e-115 4.65073e-114 3.78289e-113 3.01914e-112 2.3635e-111 1.81423e-110 1.36502e-109 1.00632e-108 7.26642e-108 5.13709e-107 3.55426e-106 2.40564e-105 1.5921e-104 1.02984e-103 6.50754e-103 4.01511e-102 2.4176e-101 1.41985e-100 8.12879e-100 4.53396e-99 2.46224e-98 1.30108e-97 6.68508e-97 3.33756e-96 1.6179e-95 7.60919e-95 3.46926e-94 1.53206e-93 6.54743e-93 2.70529e-92 1.07963e-91 4.1573e-91 1.54295e-90 5.51319e-90 1.89431e-89 6.25108e-89 1.97858e-88 5.99877e-88 1.73968e-87 4.81892e-87 1.27308e-86 3.20283e-86 7.66158e-86 1.74002e-85 3.74628e-85 7.63567e-85 1.47144e-84 2.67795e-84 4.59893e-84 7.44835e-84 1.13744e-83 1.63821e-83 2.2268e-83 2.86012e-83 3.4771e-83 4.01017e-83 4.40041e-83 4.61194e-83 4.64077e-83 4.5152e-83 4.28765e-83 4.02072e-83 3.7722e-83 3.584e-83 3.47785e-83 3.45752e-83 3.51489e-83 3.63634e-83 3.80648e-83 4.00859e-83 4.22325e-83 4.428e-83 4.60037e-83 4.72367e-83 4.79282e-83 4.81614e-83 4.81149e-83 4.79837e-83 4.79049e-83 4.79255e-83 4.80234e-83 4.81575e-83 4.83155e-83 4.85373e-83 4.89116e-83 4.95521e-83 5.0557e-83 5.19583e-83 5.36751e-83 5.54952e-83 5.71035e-83 5.81606e-83 5.84049e-83 5.77346e-83 5.62338e-83 5.41307e-83 5.17133e-83 4.92466e-83 4.69282e-83 4.48878e-83 4.32089e-83 4.19452e-83 4.11201e-83 4.0716e-83 4.06687e-83 4.08702e-83 4.1175e-83 4.14016e-83 4.13365e-83 4.0758e-83 3.94923e-83 3.74871e-83 3.48685e-83 3.19426e-83 2.91334e-83 2.68804e-83 2.55386e-83 2.53125e-83 2.62341e-83 2.8173e-83 3.08638e-83 3.39452e-83 3.70094e-83 3.96665e-83 4.16107e-83 4.26721e-83 4.28338e-83 4.22113e-83 4.10096e-83 3.94777e-83 3.78724e-83 3.64309e-83 3.53469e-83 3.47491e-83 3.46873e-83 3.51349e-83 3.60105e-83 3.72114e-83 3.86428e-83 4.0223e-83 4.1856e-83 4.33859e-83 4.45701e-83 4.51068e-83 4.47203e-83 4.32645e-83 4.07858e-83 3.75064e-83 3.37391e-83 2.97831e-83 2.5853e-83 2.20648e-83 1.84675e-83 1.5089e-83 1.19685e-83 9.16368e-84 6.73748e-84 4.73603e-84 3.17184e-84 2.01866e-84 1.21872e-84 6.97245e-85 3.77847e-85 1.93968e-85 9.43694e-86 4.35471e-86 1.90788e-86 7.94533e-87 3.14914e-87 1.18952e-87 4.28785e-88 1.47703e-88 4.86863e-89 1.53769e-89 4.65946e-90 1.35628e-90 3.7969e-91 1.02349e-91 2.65941e-92 6.6681e-93 1.615e-93 3.78195e-94 8.5711e-95 1.88155e-95 4.00427e-96 8.2681e-97 1.65767e-97 3.22939e-98 6.11754e-99 1.12761e-99 2.0237e-100 3.53839e-101 6.03105e-102 1.00266e-102 1.62675e-103 2.57706e-104 3.98819e-105 6.03233e-106 8.9218e-107 1.29083e-107 1.82777e-108 2.53388e-109 3.44061e-110 4.57755e-111 5.96953e-112 7.63327e-113 9.57394e-114 1.178e-114 1.40351e-115 0 
0 6.83301e-162 1.05878e-160 1.61661e-159 2.44179e-158 3.64823e-157 5.39113e-156 7.87873e-155 1.13858e-153 1.62687e-152 2.29814e-151 3.2091e-150 4.42917e-149 6.04145e-148 8.14303e-147 1.08443e-145 1.4267e-144 1.85406e-143 2.37964e-142 3.01606e-141 3.77439e-140 4.66303e-139 5.68645e-138 6.84382e-137 8.1278e-136 9.52349e-135 1.10077e-133 1.25488e-132 1.4107e-131 1.56359e-130 1.70838e-129 1.83966e-128 1.95211e-127 2.04078e-126 2.10148e-125 2.13109e-124 2.12781e-123 2.09134e-122 2.02291e-121 1.92527e-120 1.80244e-119 1.65951e-118 1.50224e-117 1.33666e-116 1.16872e-115 1.00389e-114 8.46875e-114 7.01429e-113 5.70222e-112 4.54843e-111 3.55871e-110 2.73017e-109 2.05304e-108 1.51272e-107 1.0917e-106 7.71376e-106 5.33414e-105 3.60839e-104 2.38684e-103 1.54309e-102 9.74563e-102 6.00985e-101 3.61681e-100 2.12305e-99 1.21485e-98 6.77257e-98 3.67611e-97 1.94154e-96 9.97088e-96 4.97558e-95 2.41078e-94 1.13328e-93 5.16452e-93 2.27965e-92 9.73784e-92 4.02169e-91 1.60427e-90 6.17481e-90 2.29075e-89 8.18175e-89 2.81006e-88 9.26928e-88 2.93275e-87 8.8883e-87 2.57672e-86 7.13499e-86 1.88431e-85 4.73904e-85 1.13329e-84 2.57308e-84 5.53838e-84 1.12856e-83 2.1743e-83 3.95634e-83 6.79316e-83 1.10004e-82 1.67967e-82 2.41891e-82 3.28776e-82 4.22261e-82 5.13337e-82 5.92032e-82 6.49654e-82 6.80909e-82 6.85206e-82 6.66721e-82 6.33187e-82 5.93837e-82 5.57195e-82 5.29446e-82 5.13796e-82 5.10799e-82 5.19261e-82 5.37171e-82 5.62261e-82 5.92065e-82 6.23721e-82 6.53922e-82 6.79353e-82 6.97558e-82 7.07784e-82 7.11257e-82 7.10605e-82 7.08702e-82 7.07565e-82 7.07891e-82 7.09353e-82 7.11347e-82 7.13692e-82 7.16975e-82 7.22505e-82 7.31955e-82 7.46773e-82 7.6743e-82 7.92735e-82 8.19558e-82 8.43257e-82 8.58832e-82 8.62425e-82 8.52538e-82 8.30407e-82 7.99394e-82 7.6374e-82 7.27353e-82 6.93149e-82 6.63045e-82 6.38275e-82 6.19633e-82 6.07462e-82 6.01503e-82 6.00804e-82 6.03771e-82 6.08253e-82 6.11569e-82 6.10569e-82 6.01986e-82 5.83258e-82 5.53621e-82 5.14941e-82 4.71737e-82 4.30265e-82 3.97007e-82 3.77199e-82 3.73858e-82 3.87456e-82 4.16068e-82 4.5578e-82 5.01258e-82 5.46491e-82 5.85722e-82 6.14441e-82 6.30139e-82 6.3256e-82 6.23406e-82 6.05702e-82 5.83117e-82 5.59441e-82 5.38175e-82 5.22178e-82 5.13348e-82 5.12421e-82 5.19009e-82 5.31913e-82 5.49621e-82 5.70733e-82 5.94043e-82 6.1813e-82 6.40692e-82 6.58151e-82 6.66057e-82 6.60348e-82 6.3887e-82 6.02308e-82 5.53933e-82 4.98355e-82 4.39981e-82 3.81973e-82 3.26045e-82 2.72921e-82 2.23016e-82 1.76911e-82 1.35466e-82 9.96094e-83 7.00269e-83 4.69043e-83 2.98554e-83 1.80273e-83 1.03154e-83 5.5911e-84 2.8708e-84 1.39703e-84 6.44824e-85 2.82586e-85 1.17716e-85 4.66711e-86 1.76346e-86 6.35887e-87 2.1912e-87 7.22532e-88 2.28288e-88 6.92017e-89 2.01513e-89 5.64366e-90 1.52193e-90 3.95624e-91 9.92402e-92 2.40464e-92 5.63364e-93 1.27734e-93 2.80537e-94 5.9731e-95 1.23393e-95 2.47509e-96 4.82419e-97 9.14311e-98 1.68613e-98 3.02759e-99 5.29634e-100 9.03202e-101 1.50234e-101 2.43872e-102 3.86537e-103 5.98509e-104 9.05754e-105 1.34032e-105 1.94025e-106 2.74881e-107 3.8128e-108 5.17999e-109 6.89549e-110 8.99728e-111 1.15112e-111 1.44458e-112 1.77844e-113 2.12005e-114 0 
0 1.04379e-160 1.61636e-159 2.4664e-158 3.72301e-157 5.559e-156 8.20962e-155 1.19902e-153 1.73167e-152 2.47277e-151 3.4909e-150 4.87165e-149 6.71964e-148 9.16002e-147 1.23388e-145 1.64219e-144 2.15917e-143 2.80421e-142 3.59694e-141 4.55614e-140 5.69821e-139 7.03552e-138 8.57442e-137 1.03133e-135 1.22408e-134 1.43342e-133 1.65581e-132 1.88649e-131 2.11948e-130 2.34777e-129 2.56365e-128 2.75903e-127 2.92593e-126 3.05702e-125 3.14609e-124 3.18855e-123 3.18178e-122 3.12541e-121 3.02139e-120 2.87388e-119 2.68898e-118 2.47432e-117 2.23853e-116 1.99066e-115 1.73956e-114 1.49336e-113 1.25908e-112 1.04225e-111 8.46815e-111 6.75092e-110 5.27901e-109 4.0477e-108 3.04212e-107 2.24025e-106 1.61587e-105 1.14112e-104 7.88668e-104 5.33225e-103 3.52523e-102 2.27785e-101 1.43785e-100 8.86217e-100 5.33059e-99 3.12742e-98 1.78865e-97 9.96635e-97 5.40695e-96 2.85425e-95 1.46509e-94 7.30741e-94 3.53888e-93 1.66279e-92 7.57401e-92 3.34165e-91 1.42678e-90 5.88987e-90 2.34845e-89 9.03519e-89 3.35046e-88 1.19616e-87 4.10659e-87 1.35406e-86 4.28251e-86 1.29741e-85 3.75982e-85 1.04074e-84 2.7476e-84 6.90797e-84 1.65147e-83 3.7485e-83 8.06623e-83 1.64325e-82 3.16522e-82 5.75827e-82 9.88539e-82 1.60054e-81 2.44359e-81 3.51869e-81 4.78222e-81 6.1417e-81 7.46617e-81 8.61069e-81 9.44892e-81 9.9039e-81 9.96703e-81 9.69897e-81 9.21211e-81 8.64064e-81 8.10844e-81 7.70538e-81 7.47806e-81 7.43456e-81 7.55751e-81 7.81771e-81 8.18219e-81 8.61518e-81 9.07508e-81 9.51391e-81 9.88355e-81 1.01483e-80 1.02973e-80 1.03483e-80 1.03393e-80 1.03121e-80 1.0296e-80 1.0301e-80 1.03225e-80 1.03518e-80 1.03861e-80 1.04339e-80 1.05144e-80 1.06518e-80 1.0867e-80 1.1167e-80 1.15344e-80 1.19238e-80 1.22679e-80 1.24939e-80 1.2546e-80 1.24023e-80 1.20808e-80 1.16303e-80 1.11122e-80 1.05835e-80 1.00864e-80 9.6488e-81 9.28879e-81 9.01786e-81 8.84101e-81 8.75443e-81 8.74426e-81 8.78729e-81 8.85222e-81 8.90003e-81 8.88492e-81 8.75945e-81 8.48644e-81 8.05491e-81 7.49203e-81 6.86354e-81 6.26037e-81 5.77671e-81 5.48864e-81 5.44001e-81 5.63766e-81 6.0536e-81 6.63097e-81 7.29225e-81 7.95004e-81 8.5207e-81 8.93863e-81 9.16734e-81 9.20306e-81 9.07048e-81 8.81352e-81 8.48551e-81 8.14152e-81 7.83246e-81 7.59988e-81 7.47139e-81 7.45771e-81 7.55322e-81 7.74056e-81 7.99777e-81 8.30452e-81 8.64324e-81 8.99325e-81 9.32104e-81 9.57462e-81 9.68936e-81 9.60627e-81 9.29412e-81 8.76281e-81 8.05985e-81 7.25208e-81 6.40351e-81 5.56005e-81 4.74658e-81 3.97368e-81 3.24742e-81 2.57635e-81 1.97297e-81 1.4509e-81 1.02011e-81 6.83357e-82 4.35027e-82 2.62718e-82 1.50355e-82 8.15102e-83 4.18608e-83 2.03755e-83 9.40706e-84 4.12362e-84 1.71826e-84 6.81448e-85 2.57567e-85 9.2907e-86 3.20259e-86 1.05641e-86 3.33905e-87 1.01257e-87 2.94973e-88 8.26452e-89 2.22963e-89 5.79837e-90 1.45512e-90 3.5274e-91 8.26779e-92 1.87545e-92 4.12088e-93 8.77818e-94 1.81426e-94 3.64092e-95 7.09997e-96 1.3463e-96 2.48402e-97 4.4625e-98 7.81049e-99 1.33263e-99 2.21777e-100 3.60194e-101 5.71205e-102 8.84914e-103 1.3399e-103 1.98382e-104 2.87333e-105 4.07292e-106 5.65252e-107 7.6836e-108 1.02339e-108 1.33606e-109 1.71032e-110 2.14754e-111 2.64533e-112 3.1552e-113 0 
0 1.57732e-159 2.44104e-158 3.72243e-157 5.61547e-156 8.37947e-155 1.23672e-153 1.80512e-152 2.60539e-151 3.71812e-150 5.24575e-149 7.31605e-148 1.00851e-146 1.37392e-145 1.84957e-144 2.4601e-143 3.2326e-142 4.19574e-141 5.37857e-140 6.80872e-139 8.51026e-138 1.05011e-136 1.27903e-135 1.5375e-134 1.82375e-133 2.13434e-132 2.46401e-131 2.8056e-130 3.15021e-129 3.48745e-128 3.80586e-127 4.09347e-126 4.33854e-125 4.53024e-124 4.65949e-123 4.7196e-122 4.70682e-121 4.62075e-120 4.46436e-119 4.24394e-118 3.96859e-117 3.64968e-116 3.3e-115 2.93291e-114 2.56149e-113 2.19773e-112 1.85189e-111 1.53211e-110 1.24412e-109 9.91276e-109 7.74716e-108 5.93688e-107 4.45951e-106 3.28224e-105 2.36615e-104 1.67006e-103 1.15362e-102 7.79552e-102 5.15099e-101 3.32658e-100 2.09874e-99 1.29288e-98 7.77265e-98 4.55781e-97 2.60539e-96 1.45099e-95 7.86798e-95 4.15134e-94 2.12984e-93 1.06178e-92 5.13959e-92 2.41376e-91 1.09895e-90 4.84632e-90 2.06828e-89 8.5342e-89 3.40131e-88 1.30802e-87 4.84838e-87 1.73022e-86 5.93766e-86 1.95704e-85 6.18717e-85 1.87374e-84 5.42802e-84 1.50198e-83 3.96399e-83 9.96303e-83 2.38112e-82 5.40312e-82 1.16237e-81 2.36741e-81 4.55908e-81 8.29239e-81 1.42333e-80 2.30418e-80 3.51743e-80 5.0645e-80 6.88262e-80 8.83877e-80 1.07446e-79 1.23916e-79 1.35982e-79 1.42535e-79 1.43453e-79 1.39607e-79 1.32613e-79 1.24402e-79 1.16753e-79 1.10961e-79 1.07694e-79 1.07069e-79 1.08837e-79 1.12577e-79 1.17816e-79 1.2404e-79 1.30651e-79 1.3696e-79 1.42276e-79 1.46086e-79 1.48234e-79 1.48973e-79 1.48852e-79 1.48467e-79 1.48241e-79 1.48318e-79 1.48631e-79 1.49055e-79 1.49551e-79 1.50242e-79 1.51401e-79 1.53376e-79 1.5647e-79 1.60781e-79 1.66059e-79 1.71653e-79 1.76594e-79 1.7984e-79 1.80586e-79 1.78521e-79 1.739e-79 1.67423e-79 1.59976e-79 1.52373e-79 1.45225e-79 1.38932e-79 1.33755e-79 1.29859e-79 1.27317e-79 1.26072e-79 1.25926e-79 1.26544e-79 1.27474e-79 1.28156e-79 1.27931e-79 1.26116e-79 1.22178e-79 1.15961e-79 1.07856e-79 9.881e-80 9.01299e-80 8.31704e-80 7.90252e-80 7.83246e-80 8.11671e-80 8.71501e-80 9.54558e-80 1.04969e-79 1.14435e-79 1.22648e-79 1.28666e-79 1.31963e-79 1.32484e-79 1.30584e-79 1.26894e-79 1.22181e-79 1.17236e-79 1.12792e-79 1.09446e-79 1.07596e-79 1.07396e-79 1.08766e-79 1.11457e-79 1.15154e-79 1.19563e-79 1.24433e-79 1.29466e-79 1.34178e-79 1.37822e-79 1.39469e-79 1.38273e-79 1.33784e-79 1.26145e-79 1.16037e-79 1.04422e-79 9.22164e-80 8.00813e-80 6.83743e-80 5.72478e-80 4.67902e-80 3.71249e-80 2.84332e-80 2.09116e-80 1.47043e-80 9.85137e-81 6.27224e-81 3.78844e-81 2.16851e-81 1.17581e-81 6.03978e-82 2.9405e-82 1.35791e-82 5.95404e-83 2.48167e-83 9.84506e-84 3.7223e-84 1.34312e-84 4.63145e-85 1.52829e-85 4.8323e-86 1.46596e-86 4.27219e-87 1.19746e-87 3.23188e-88 8.40838e-89 2.11102e-89 5.11963e-90 1.20051e-90 2.72447e-91 5.98914e-92 1.27639e-92 2.63927e-93 5.29911e-94 1.03385e-94 1.96135e-95 3.62064e-96 6.50767e-97 1.13958e-97 1.94534e-98 3.23912e-99 5.26345e-100 8.35128e-101 1.29446e-101 1.96106e-102 2.90504e-103 4.20986e-104 5.97066e-105 8.29075e-106 1.12759e-106 1.50268e-107 1.96287e-108 2.5141e-109 3.15855e-110 3.89287e-111 4.64572e-112 0 
0 2.35773e-158 3.64651e-157 5.55723e-156 8.37812e-155 1.24941e-153 1.84285e-152 2.68816e-151 3.8775e-150 5.5301e-149 7.79738e-148 1.0868e-146 1.49721e-145 2.03844e-144 2.74247e-143 3.6455e-142 4.78729e-141 6.20986e-140 7.95564e-139 1.00649e-137 1.25725e-136 1.55044e-135 1.88728e-134 2.26729e-133 2.68779e-132 3.14365e-131 3.62703e-130 4.12739e-129 4.6316e-128 5.12438e-127 5.58892e-126 6.00772e-125 6.36363e-124 6.6409e-123 6.82636e-122 6.91037e-121 6.88765e-120 6.75776e-119 6.52527e-118 6.1995e-117 5.79394e-116 5.32529e-115 4.81231e-114 4.27456e-113 3.73111e-112 3.19943e-111 2.69445e-110 2.22793e-109 1.80814e-108 1.43986e-107 1.12468e-106 8.614e-106 6.4669e-105 4.7571e-104 3.42751e-103 2.41788e-102 1.66928e-101 1.12741e-100 7.44555e-100 4.80591e-99 3.03047e-98 1.86588e-97 1.12117e-96 6.57105e-96 3.75432e-95 2.0898e-94 1.13263e-93 5.97307e-93 3.06298e-92 1.52624e-91 7.38428e-91 3.46632e-90 1.57743e-89 6.9532e-89 2.9661e-88 1.22333e-87 4.87348e-87 1.87335e-86 6.94095e-86 2.47597e-85 8.49344e-85 2.79832e-84 8.8435e-84 2.67719e-83 7.75277e-83 2.14452e-82 5.6579e-82 1.4216e-81 3.39656e-81 7.70517e-81 1.65718e-80 3.37439e-80 6.49689e-80 1.18147e-79 2.02758e-79 3.2819e-79 5.00938e-79 7.21197e-79 9.80032e-79 1.25852e-78 1.52984e-78 1.76434e-78 1.93617e-78 2.02956e-78 2.04276e-78 1.98817e-78 1.88878e-78 1.77205e-78 1.6633e-78 1.58094e-78 1.53449e-78 1.52562e-78 1.55076e-78 1.60394e-78 1.67845e-78 1.76695e-78 1.86097e-78 1.95071e-78 2.02635e-78 2.0806e-78 2.11123e-78 2.12185e-78 2.12023e-78 2.11486e-78 2.11172e-78 2.11288e-78 2.11739e-78 2.12347e-78 2.13057e-78 2.14044e-78 2.15695e-78 2.18505e-78 2.22905e-78 2.29032e-78 2.36534e-78 2.44483e-78 2.51504e-78 2.56115e-78 2.57175e-78 2.54236e-78 2.47665e-78 2.38455e-78 2.27862e-78 2.17047e-78 2.06877e-78 1.97925e-78 1.90559e-78 1.85017e-78 1.81401e-78 1.79631e-78 1.79423e-78 1.803e-78 1.81619e-78 1.82582e-78 1.82249e-78 1.79651e-78 1.74032e-78 1.6517e-78 1.53624e-78 1.40742e-78 1.28384e-78 1.18476e-78 1.12574e-78 1.11576e-78 1.1562e-78 1.24135e-78 1.35956e-78 1.49497e-78 1.62972e-78 1.74667e-78 1.8324e-78 1.87943e-78 1.88696e-78 1.86003e-78 1.8076e-78 1.74059e-78 1.67027e-78 1.60704e-78 1.55943e-78 1.53307e-78 1.53018e-78 1.54963e-78 1.58787e-78 1.64042e-78 1.70314e-78 1.77242e-78 1.844e-78 1.91101e-78 1.96282e-78 1.98622e-78 1.96918e-78 1.90532e-78 1.79665e-78 1.65287e-78 1.48761e-78 1.31393e-78 1.14119e-78 9.74499e-79 8.16025e-79 6.67036e-79 5.29307e-79 4.05427e-79 2.98207e-79 2.09713e-79 1.40517e-79 8.94769e-80 5.40521e-80 3.09445e-80 1.67818e-80 8.62208e-81 4.19863e-81 1.93938e-81 8.50582e-82 3.54625e-82 1.40725e-82 5.32231e-83 1.92107e-83 6.62665e-84 2.18744e-84 6.91901e-85 2.09979e-85 6.12172e-86 1.71655e-86 4.63477e-87 1.20633e-87 3.02994e-88 7.35136e-89 1.7246e-89 3.9156e-90 8.61153e-91 1.83611e-91 3.79844e-92 7.63011e-93 1.48935e-93 2.82686e-94 5.22091e-95 9.38864e-96 1.6449e-96 2.80939e-97 4.68019e-98 7.60906e-99 1.20792e-99 1.87328e-100 2.83943e-101 4.20845e-102 6.10196e-103 8.65879e-104 1.20299e-104 1.63704e-105 2.18277e-106 2.8528e-107 3.65597e-108 4.59566e-109 5.66723e-110 6.76691e-111 0 
0 3.48569e-157 5.3877e-156 8.20564e-155 1.23632e-153 1.84255e-152 2.71602e-151 3.95939e-150 5.70763e-149 8.13519e-148 1.14634e-146 1.59679e-145 2.19844e-144 2.99132e-143 4.02198e-142 5.34306e-141 7.01224e-140 9.09042e-139 1.16389e-137 1.47158e-136 1.8371e-135 2.26413e-134 2.75437e-133 3.30697e-132 3.91795e-131 4.5797e-130 5.28074e-129 6.00565e-128 6.7353e-127 7.44748e-126 8.1178e-125 8.72096e-124 9.23216e-123 9.62877e-122 9.89188e-121 1.00078e-119 9.96906e-119 9.77539e-118 9.43362e-117 8.95749e-116 8.3667e-115 7.68555e-114 6.94124e-113 6.16209e-112 5.37562e-111 4.60701e-110 3.87769e-109 3.2045e-108 2.59925e-107 2.0687e-106 1.61497e-105 1.23624e-104 9.27592e-104 6.81973e-103 4.91099e-102 3.46251e-101 2.38921e-100 1.61278e-99 1.06454e-98 6.86773e-98 4.32834e-97 2.66361e-96 1.59968e-95 9.37083e-95 5.35126e-94 2.97723e-93 1.61279e-92 8.50113e-92 4.35726e-91 2.17011e-90 1.04945e-89 4.92401e-89 2.23975e-88 9.86816e-88 4.20767e-87 1.73464e-86 6.9074e-86 2.65406e-85 9.82942e-85 3.50491e-84 1.20183e-83 3.9581e-83 1.2504e-82 3.78396e-82 1.09539e-81 3.02898e-81 7.98878e-81 2.00664e-80 4.79295e-80 1.08699e-79 2.33724e-79 4.75803e-79 9.15896e-79 1.66526e-78 2.85736e-78 4.62436e-78 7.05764e-78 1.01599e-77 1.38053e-77 1.77274e-77 2.15488e-77 2.48519e-77 2.72726e-77 2.85894e-77 2.87772e-77 2.80107e-77 2.66135e-77 2.49718e-77 2.34423e-77 2.22838e-77 2.16305e-77 2.15057e-77 2.18595e-77 2.26078e-77 2.36559e-77 2.4901e-77 2.62237e-77 2.74865e-77 2.85511e-77 2.93152e-77 2.97474e-77 2.98982e-77 2.98768e-77 2.98026e-77 2.97596e-77 2.97769e-77 2.98412e-77 2.99274e-77 3.00281e-77 3.01675e-77 3.04001e-77 3.07957e-77 3.14145e-77 3.22762e-77 3.3331e-77 3.44484e-77 3.54353e-77 3.60834e-77 3.6232e-77 3.58185e-77 3.48941e-77 3.35984e-77 3.2108e-77 3.0586e-77 2.91547e-77 2.78946e-77 2.68579e-77 2.6078e-77 2.55692e-77 2.53203e-77 2.5291e-77 2.54142e-77 2.55993e-77 2.57336e-77 2.56851e-77 2.53174e-77 2.45241e-77 2.32744e-77 2.16473e-77 1.98324e-77 1.80917e-77 1.66963e-77 1.58651e-77 1.57243e-77 1.62936e-77 1.74923e-77 1.91567e-77 2.10635e-77 2.29612e-77 2.46087e-77 2.58169e-77 2.64805e-77 2.65882e-77 2.62105e-77 2.54737e-77 2.45313e-77 2.35418e-77 2.2652e-77 2.19816e-77 2.16102e-77 2.15689e-77 2.18419e-77 2.23795e-77 2.31187e-77 2.40011e-77 2.49759e-77 2.59831e-77 2.69259e-77 2.76546e-77 2.79835e-77 2.77433e-77 2.68445e-77 2.53154e-77 2.3292e-77 2.0966e-77 1.8521e-77 1.60886e-77 1.37405e-77 1.15076e-77 9.40766e-78 7.46599e-78 5.71925e-78 4.20717e-78 2.95899e-78 1.98289e-78 1.26281e-78 7.62962e-79 4.36862e-79 2.36961e-79 1.21769e-79 5.93099e-80 2.74023e-80 1.20213e-80 5.01327e-81 1.98998e-81 7.52855e-82 2.71828e-82 9.37973e-83 3.09731e-83 9.80052e-84 2.97539e-84 8.67776e-85 2.43424e-85 6.57522e-86 1.7121e-86 4.30208e-87 1.04424e-87 2.45082e-88 5.56692e-89 1.22488e-89 2.61284e-90 5.4078e-91 1.0868e-91 2.12238e-92 4.03034e-93 7.44726e-94 1.33988e-94 2.34866e-95 4.01338e-96 6.68934e-97 1.08811e-97 1.72824e-98 2.6816e-99 4.06677e-100 6.03073e-101 8.74879e-102 1.24213e-102 1.72666e-103 2.35091e-104 3.13633e-105 4.10131e-106 5.25886e-107 6.61419e-108 8.16095e-109 9.74979e-110 0 
0 5.09636e-156 7.87236e-155 1.19824e-153 1.80422e-152 2.68725e-151 3.95871e-150 5.76739e-149 8.30879e-148 1.18354e-146 1.66671e-145 2.32021e-144 3.19247e-143 4.34119e-142 5.83337e-141 7.74469e-140 1.0158e-138 1.31604e-137 1.68397e-136 2.12785e-135 2.65478e-134 3.2699e-133 3.97552e-132 4.77025e-131 5.64819e-130 6.59823e-129 7.60372e-128 8.64236e-127 9.6866e-126 1.07045e-124 1.16611e-123 1.25202e-122 1.32463e-121 1.38072e-120 1.41762e-119 1.4334e-118 1.42702e-117 1.39849e-116 1.34882e-115 1.28001e-114 1.1949e-113 1.09699e-112 9.90191e-112 8.78544e-111 7.65984e-110 6.56093e-109 5.5192e-108 4.5585e-107 3.69546e-106 2.93954e-105 2.29355e-104 1.75472e-103 1.31591e-102 9.66942e-102 6.95935e-101 4.90408e-100 3.38213e-99 2.28182e-98 1.50536e-97 9.70655e-97 6.11432e-96 3.76075e-95 2.25744e-94 1.32172e-93 7.54398e-93 4.19509e-92 2.2714e-91 1.19669e-90 6.13066e-90 3.05189e-89 1.47518e-88 6.9183e-88 3.14544e-87 1.38523e-86 5.90382e-86 2.43282e-85 9.68343e-85 3.71913e-84 1.37683e-83 4.90741e-83 1.68208e-82 5.53763e-82 1.74874e-81 5.29011e-81 1.53087e-80 4.23173e-80 1.11574e-79 2.80169e-79 6.69004e-79 1.51683e-78 3.26064e-78 6.63632e-78 1.27719e-77 2.32173e-77 3.98313e-77 6.44542e-77 9.8358e-77 1.4158e-76 1.92367e-76 2.47007e-76 3.00246e-76 3.46269e-76 3.80006e-76 3.98371e-76 4.01015e-76 3.9037e-76 3.7094e-76 3.48103e-76 3.26823e-76 3.10705e-76 3.01616e-76 2.99881e-76 3.04804e-76 3.15217e-76 3.29802e-76 3.47129e-76 3.65537e-76 3.83112e-76 3.97935e-76 4.08581e-76 4.14612e-76 4.16731e-76 4.16453e-76 4.15439e-76 4.14856e-76 4.15111e-76 4.16018e-76 4.17229e-76 4.18639e-76 4.20587e-76 4.2383e-76 4.29337e-76 4.37947e-76 4.49932e-76 4.64602e-76 4.80141e-76 4.93862e-76 5.02871e-76 5.04934e-76 4.99178e-76 4.86314e-76 4.68283e-76 4.4754e-76 4.26355e-76 4.06428e-76 3.88886e-76 3.74453e-76 3.63597e-76 3.56516e-76 3.53052e-76 3.52644e-76 3.54357e-76 3.56925e-76 3.5878e-76 3.58081e-76 3.52931e-76 3.41853e-76 3.24422e-76 3.01739e-76 2.76448e-76 2.52196e-76 2.32756e-76 2.21175e-76 2.19211e-76 2.27137e-76 2.4383e-76 2.6701e-76 2.9357e-76 3.20006e-76 3.42963e-76 3.59808e-76 3.6907e-76 3.70592e-76 3.65354e-76 3.55111e-76 3.42001e-76 3.28231e-76 3.15844e-76 3.06507e-76 3.01331e-76 3.00747e-76 3.04537e-76 3.12012e-76 3.22296e-76 3.34576e-76 3.48144e-76 3.62163e-76 3.75283e-76 3.85421e-76 3.89994e-76 3.86646e-76 3.74132e-76 3.52848e-76 3.24682e-76 2.923e-76 2.58252e-76 2.24371e-76 1.91654e-76 1.6053e-76 1.31253e-76 1.04175e-76 7.98108e-77 5.87163e-77 4.1301e-77 2.768e-77 1.76304e-77 1.06534e-77 6.10097e-78 3.30986e-78 1.70119e-78 8.28775e-79 3.82999e-79 1.68062e-79 7.01064e-80 2.78362e-80 1.05342e-80 3.80472e-81 1.3133e-81 4.33817e-82 1.37318e-82 4.17043e-83 1.21677e-83 3.41456e-84 9.22689e-85 2.40354e-85 6.04205e-86 1.4672e-86 3.44501e-87 7.82864e-88 1.7233e-88 3.6777e-89 7.61527e-90 1.53116e-90 2.99156e-91 5.68362e-92 1.05073e-92 1.89136e-93 3.31698e-94 5.67087e-95 9.45675e-96 1.53905e-96 2.44572e-97 3.79683e-98 5.76106e-99 8.54772e-100 1.24067e-100 1.76241e-101 2.4512e-102 3.3392e-103 4.4572e-104 5.83176e-105 7.4818e-106 9.41521e-107 1.16234e-107 1.38938e-108 0 
0 7.36816e-155 1.13746e-153 1.73023e-152 2.60363e-151 3.87551e-150 5.70564e-149 8.30732e-148 1.19606e-146 1.70266e-145 2.39629e-144 3.33379e-143 4.58429e-142 6.23e-141 8.3663e-140 1.11008e-138 1.45509e-137 1.88404e-136 2.4093e-135 3.04254e-134 3.79369e-133 4.66988e-132 5.67419e-131 6.80442e-130 8.05191e-129 9.40065e-128 1.08268e-126 1.22983e-125 1.37762e-124 1.52148e-123 1.65647e-122 1.77746e-121 1.87944e-120 1.95789e-119 2.00904e-118 2.03022e-117 2.02002e-116 1.97849e-115 1.90712e-114 1.80879e-113 1.68756e-112 1.5484e-111 1.39686e-110 1.23866e-109 1.07935e-108 9.23988e-108 7.76845e-107 6.41267e-106 5.19572e-105 4.13063e-104 3.22113e-103 2.46304e-102 1.84609e-101 1.3558e-100 9.75281e-100 6.86891e-99 4.73468e-98 3.19267e-97 2.10516e-96 1.3567e-95 8.54169e-95 5.25107e-94 3.15043e-93 1.84364e-92 1.05177e-91 5.84582e-91 3.16363e-90 1.66595e-89 8.53063e-89 4.2446e-88 2.05074e-87 9.61311e-87 4.36866e-86 1.92306e-85 8.19245e-85 3.37445e-84 1.34257e-83 5.15427e-83 1.90734e-82 6.79558e-82 2.32837e-81 7.66239e-81 2.41883e-80 7.31459e-80 2.11599e-79 5.84724e-79 1.5412e-78 3.86888e-78 9.23573e-78 2.09345e-77 4.49908e-77 9.15483e-77 1.76153e-76 3.20161e-76 5.49176e-76 8.88546e-76 1.35578e-75 1.95139e-75 2.65122e-75 3.40414e-75 4.13777e-75 4.77202e-75 5.23708e-75 5.49042e-75 5.52725e-75 5.38104e-75 5.1138e-75 4.79959e-75 4.50677e-75 4.28497e-75 4.1599e-75 4.13604e-75 4.20381e-75 4.34714e-75 4.54788e-75 4.78635e-75 5.03972e-75 5.28167e-75 5.48579e-75 5.63248e-75 5.71572e-75 5.74516e-75 5.74162e-75 5.72792e-75 5.72012e-75 5.72382e-75 5.73647e-75 5.75329e-75 5.77283e-75 5.79975e-75 5.84446e-75 5.92029e-75 6.03878e-75 6.20366e-75 6.40543e-75 6.61914e-75 6.80783e-75 6.9317e-75 6.96001e-75 6.88076e-75 6.70371e-75 6.45554e-75 6.17e-75 5.87834e-75 5.60397e-75 5.36241e-75 5.16369e-75 5.01424e-75 4.91676e-75 4.8691e-75 4.86349e-75 4.88703e-75 4.92228e-75 4.9476e-75 4.93766e-75 4.86633e-75 4.71332e-75 4.47282e-75 4.16007e-75 3.81148e-75 3.47727e-75 3.2094e-75 3.04982e-75 3.02272e-75 3.13186e-75 3.36178e-75 3.68109e-75 4.047e-75 4.41125e-75 4.72765e-75 4.95992e-75 5.0878e-75 5.10907e-75 5.03721e-75 4.89639e-75 4.71601e-75 4.52648e-75 4.35593e-75 4.22732e-75 4.15595e-75 4.14778e-75 4.19983e-75 4.30263e-75 4.44413e-75 4.61316e-75 4.79994e-75 4.99293e-75 5.17352e-75 5.31302e-75 5.37588e-75 5.32973e-75 5.15743e-75 4.86439e-75 4.47662e-75 4.03072e-75 3.56178e-75 3.09499e-75 2.6441e-75 2.21502e-75 1.81128e-75 1.43778e-75 1.10163e-75 8.10553e-76 5.70205e-76 3.82197e-76 2.43466e-76 1.47138e-76 8.4276e-77 4.57288e-77 2.35081e-77 1.14549e-77 5.29483e-78 2.32398e-78 9.69693e-79 3.85131e-79 1.45791e-79 5.26727e-80 1.81872e-80 6.00977e-81 1.90296e-81 5.78153e-82 1.68747e-82 4.73726e-83 1.28062e-83 3.33728e-84 8.39275e-85 2.03889e-85 4.78941e-86 1.08885e-86 2.39792e-87 5.11974e-88 1.06061e-88 2.1335e-89 4.17037e-90 7.92699e-91 1.46617e-91 2.64045e-92 4.63298e-93 7.92471e-94 1.32219e-94 2.1529e-95 3.42294e-96 5.31663e-97 8.07128e-98 1.19817e-98 1.74001e-99 2.47304e-100 3.44139e-101 4.69062e-102 6.26447e-103 8.2008e-104 1.05269e-104 1.32544e-105 1.63721e-106 1.95806e-107 0 
0 1.05327e-153 1.62497e-152 2.47027e-151 3.71493e-150 5.52625e-149 8.13088e-148 1.18311e-146 1.70235e-145 2.4219e-144 3.40645e-143 4.73625e-142 6.50882e-141 8.84001e-140 1.18641e-138 1.57322e-137 2.06093e-136 2.66685e-135 3.4083e-134 4.30149e-133 5.36023e-132 6.59427e-131 8.00764e-130 9.59691e-129 1.13496e-127 1.32428e-126 1.52427e-125 1.73043e-124 1.93722e-123 2.13827e-122 2.32661e-121 2.49508e-120 2.63669e-119 2.74515e-118 2.81523e-117 2.84326e-116 2.82735e-115 2.76762e-114 2.66626e-113 2.52734e-112 2.35661e-111 2.16106e-110 1.94845e-109 1.72681e-108 1.50388e-107 1.28669e-106 1.08118e-105 8.91999e-105 7.22324e-104 5.73937e-103 4.47321e-102 3.41859e-101 2.56091e-100 1.87976e-99 1.35147e-98 9.51336e-98 6.55403e-97 4.41717e-96 2.91105e-95 1.8751e-94 1.17994e-93 7.25011e-93 4.34758e-92 2.54294e-91 1.44999e-90 8.05523e-90 4.3572e-89 2.29338e-88 1.17378e-87 5.83767e-87 2.8191e-86 1.32089e-85 6.00005e-85 2.64002e-84 1.12418e-83 4.6285e-83 1.84073e-82 7.06385e-82 2.61292e-81 9.30579e-81 3.18721e-80 1.04848e-79 3.3086e-79 1.00018e-78 2.89236e-78 7.99003e-78 2.10534e-77 5.28348e-77 1.26091e-76 2.85735e-76 6.13932e-76 1.24897e-75 2.40272e-75 4.36621e-75 7.48826e-75 1.21141e-74 1.84823e-74 2.65996e-74 3.61367e-74 4.63973e-74 5.63954e-74 6.504e-74 7.13802e-74 7.48366e-74 7.53439e-74 7.33579e-74 6.97231e-74 6.54478e-74 6.1463e-74 5.84445e-74 5.67425e-74 5.6418e-74 5.73407e-74 5.92916e-74 6.20239e-74 6.52698e-74 6.87188e-74 7.20127e-74 7.47925e-74 7.67916e-74 7.79277e-74 7.83321e-74 7.82877e-74 7.81048e-74 7.80018e-74 7.80547e-74 7.82292e-74 7.84603e-74 7.87282e-74 7.90962e-74 7.97058e-74 8.07384e-74 8.23509e-74 8.45941e-74 8.73387e-74 9.02453e-74 9.28114e-74 9.44955e-74 9.48798e-74 9.38007e-74 9.13908e-74 8.80128e-74 8.41257e-74 8.01545e-74 7.64185e-74 7.31292e-74 7.04232e-74 6.83884e-74 6.70615e-74 6.64129e-74 6.63367e-74 6.66567e-74 6.71352e-74 6.74771e-74 6.73372e-74 6.63602e-74 6.42701e-74 6.09887e-74 5.67239e-74 5.19722e-74 4.74173e-74 4.37669e-74 4.15922e-74 4.12223e-74 4.27086e-74 4.58405e-74 5.01905e-74 5.51758e-74 6.01394e-74 6.4452e-74 6.76195e-74 6.93656e-74 6.96596e-74 6.8685e-74 6.67702e-74 6.43159e-74 6.1736e-74 5.94137e-74 5.76618e-74 5.66886e-74 5.65757e-74 5.72825e-74 5.86804e-74 6.06059e-74 6.29067e-74 6.54496e-74 6.80769e-74 7.05351e-74 7.24335e-74 7.32883e-74 7.2659e-74 7.03128e-74 6.6323e-74 6.10431e-74 5.4971e-74 4.85835e-74 4.22235e-74 3.60779e-74 3.02277e-74 2.47212e-74 1.96258e-74 1.50391e-74 1.10666e-74 7.78593e-75 5.21936e-75 3.32524e-75 2.00988e-75 1.15137e-75 6.2485e-76 3.21281e-76 1.56585e-76 7.23946e-77 3.17827e-77 1.3265e-77 5.26987e-78 1.99548e-78 7.21169e-79 2.49091e-79 8.23367e-80 2.60805e-80 7.92657e-81 2.3144e-81 6.49974e-82 1.75776e-82 4.58253e-83 1.15291e-83 2.80199e-84 6.58474e-85 1.49766e-85 3.29968e-86 7.04821e-87 1.46078e-87 2.93982e-88 5.74919e-89 1.09332e-89 2.02315e-90 3.6453e-91 6.39922e-92 1.09513e-92 1.82806e-93 2.9781e-94 4.73734e-95 7.36197e-96 1.11821e-96 1.66082e-97 2.41316e-98 3.43158e-99 4.77778e-100 6.51558e-101 8.70643e-102 1.14037e-102 1.46462e-103 1.84511e-104 2.28036e-105 2.72871e-106 0 