# vtk DataFile Version 3.0
Gray-Scott Simulation Output
ASCII
DATASET STRUCTURED_POINTS
DIMENSIONS 256 256 1
SPACING 1.0 1.0 1.0
ORIGIN 0 0 0
POINT_DATA 65536
SCALARS u double
LOOKUP_TABLE default
0 0 0 0 0 0 0 0 0 0 0 0 0 0 0 0 0 0 0 0 0 0 0 0 0 0 0 0 0 0 0 0 0 0 0 0 0 0 0 0 0 0 0 0 0 0 0 0 0 0 0 0 0 0 0 0 0 0 0 0 0 0 0 0 0 0 0 0 0 0 0 0 0 0 0 0 0 0 0 0 0 0 0 0 0 0 0 0 0 0 0 0 0 0 0 0 0 0 0 0 0 0 0 0 0 0 0 0 0 0 0 0 0 0 0 0 0 0 0 0 0 0 0 0 0 0 0 0 0 0 0 0 0 0 0 0 0 0 0 0 0 0 0 0 0 0 0 0 0 0 0 0 0 0 0 0 0 0 0 0 0 0 0 0 0 0 0 0 0 0 0 0 0 0 0 0 0 0 0 0 0 0 0 0 0 0 0 0 0 0 0 0 0 0 0 0 0 0 0 0 0 0 0 0 0 0 0 0 0 0 0 0 0 0 0 0 0 0 0 0 0 0 0 0 0 0 0 0 0 0 0 0 0 0 0 0 0 0 0 0 0 0 0 0 0 0 0 0 0 0 0 0 0 0 0 0 
0 1.03546e-98 5.7498e-98 3.06288e-97 1.61428e-96 8.42583e-96 4.35519e-95 2.22909e-94 1.12962e-93 5.66749e-93 2.81488e-92 1.38388e-91 6.73396e-91 3.2429e-90 1.54541e-89 7.28726e-89 3.39976e-88 1.56911e-87 7.16366e-87 3.2348e-86 1.4446e-85 6.37946e-85 2.78556e-84 1.20249e-83 5.13153e-83 2.16448e-82 9.02302e-82 3.71698e-81 1.51291e-80 6.08374e-80 2.4166e-79 9.48112e-79 3.67349e-78 1.40541e-77 5.30852e-77 1.97938e-76 7.28468e-76 2.64577e-75 9.48181e-75 3.35245e-74 1.16923e-73 4.02193e-73 1.36426e-72 4.56269e-72 1.50429e-71 4.88827e-71 1.56538e-70 4.93909e-70 1.53519e-69 4.69989e-69 1.41691e-68 4.20574e-68 1.22888e-67 3.53393e-67 1e-66 2.7839e-66 7.62303e-66 2.05273e-65 5.43472e-65 1.4144e-64 3.61759e-64 9.09134e-64 2.2444e-63 5.4418e-63 1.29555e-62 3.02788e-62 6.94536e-62 1.56324e-61 3.45166e-61 7.47487e-61 1.58728e-60 3.30426e-60 6.74169e-60 1.34784e-59 2.63988e-59 5.06421e-59 9.51318e-59 1.74958e-58 3.14955e-58 5.5486e-58 9.56436e-58 1.61283e-57 2.66018e-57 4.29097e-57 6.76804e-57 1.04372e-56 1.57352e-56 2.31897e-56 3.34069e-56 4.70417e-56 6.47505e-56 8.71245e-56 1.14608e-55 1.47413e-55 1.85435e-55 2.28194e-55 2.74808e-55 3.24016e-55 3.74249e-55 4.2376e-55 4.70776e-55 5.13681e-55 5.51182e-55 5.82437e-55 6.07142e-55 6.2553e-55 6.38323e-55 6.46612e-55 6.51708e-55 6.54978e-55 6.57686e-55 6.60873e-55 6.65277e-55 6.71301e-55 6.79025e-55 6.88264e-55 6.98641e-55 7.09675e-55 7.20868e-55 7.31776e-55 7.42057e-55 7.51505e-55 7.60054e-55 7.67763e-55 7.74789e-55 7.81353e-55 7.87696e-55 7.94045e-55 8.00572e-55 8.07364e-55 8.14402e-55 8.2154e-55 8.28511e-55 8.34939e-55 8.40366e-55 8.443e-55 8.46271e-55 8.45888e-55 8.42896e-55 8.37214e-55 8.28954e-55 8.18416e-55 8.06056e-55 7.92432e-55 7.78134e-55 7.63719e-55 7.49638e-55 7.3619e-55 7.23492e-55 7.11475e-55 6.99915e-55 6.88474e-55 6.76779e-55 6.64496e-55 6.51411e-55 6.37498e-55 6.22957e-55 6.08226e-55 5.93953e-55 5.80926e-55 5.69984e-55 5.61903e-55 5.57287e-55 5.5648e-55 5.59498e-55 5.66018e-55 5.75407e-55 5.86788e-55 5.99148e-55 6.11454e-55 6.22772e-55 6.32368e-55 6.39777e-55 6.44837e-55 6.47681e-55 6.4869e-55 6.48421e-55 6.47522e-55 6.4663e-55 6.46288e-55 6.46866e-55 6.48517e-55 6.51139e-55 6.54386e-55 6.57682e-55 6.6027e-55 6.61277e-55 6.59789e-55 6.54929e-55 6.45935e-55 6.3223e-55 6.13471e-55 5.8958e-55 5.60749e-55 5.27426e-55 4.90281e-55 4.50153e-55 4.08001e-55 3.64841e-55 3.21693e-55 2.79524e-55 2.39209e-55 2.01487e-55 1.66939e-55 1.35971e-55 1.08806e-55 8.54922e-56 6.59232e-56 4.98628e-56 3.69786e-56 2.68777e-56 1.91407e-56 1.33515e-56 9.12024e-57 6.0998e-57 3.99394e-57 2.55992e-57 1.60609e-57 9.86353e-58 5.92952e-58 3.48944e-58 2.01036e-58 1.13401e-58 6.26378e-59 3.38839e-59 1.79536e-59 9.31925e-60 4.7398e-60 2.36247e-60 1.1542e-60 5.52836e-61 2.59653e-61 1.19609e-61 5.40507e-62 2.39659e-62 1.04288e-62 4.4547e-63 1.86826e-63 7.69455e-64 3.11279e-64 1.23717e-64 4.83183e-65 1.85477e-65 6.99926e-66 2.5971e-66 9.47735e-67 3.402e-67 1.20148e-67 4.17558e-68 1.4283e-68 4.80957e-69 1.59451e-69 5.20211e-70 1.65907e-70 4.79584e-71 0 
0 5.74473e-98 3.18982e-97 1.69909e-96 8.95453e-96 4.67361e-95 2.4156e-94 1.2363e-93 6.26486e-93 3.14305e-92 1.561e-91 7.67408e-91 3.73408e-90 1.79818e-89 8.56908e-89 4.04058e-88 1.88504e-87 8.69998e-87 3.97187e-86 1.79351e-85 8.00942e-85 3.53702e-84 1.54443e-83 6.66717e-83 2.84518e-82 1.20012e-81 5.003e-81 2.061e-80 8.3891e-80 3.37354e-79 1.3401e-78 5.25786e-78 2.03727e-77 7.79461e-77 2.94435e-76 1.09792e-75 4.04092e-75 1.46775e-74 5.26046e-74 1.86007e-73 6.48789e-73 2.23192e-72 7.57152e-72 2.5325e-71 8.35035e-71 2.71379e-70 8.69142e-70 2.74266e-69 8.52593e-69 2.6105e-68 7.8711e-68 2.33667e-67 6.82854e-67 1.964e-66 5.55843e-66 1.54766e-65 4.23857e-65 1.14156e-64 3.02285e-64 7.8684e-64 2.01286e-63 5.05942e-63 1.24927e-62 3.02955e-62 7.21395e-62 1.68632e-61 3.86885e-61 8.70958e-61 1.92347e-60 4.16627e-60 8.84873e-60 1.84242e-59 3.75982e-59 7.51829e-59 1.47281e-58 2.82589e-58 5.30943e-58 9.76638e-58 1.75842e-57 3.09833e-57 5.34157e-57 9.00879e-57 1.4861e-56 2.39746e-56 3.78191e-56 5.83282e-56 8.79448e-56 1.2962e-55 1.86744e-55 2.62979e-55 3.61997e-55 4.87101e-55 6.40777e-55 8.24203e-55 1.03679e-54 1.27585e-54 1.53645e-54 1.81152e-54 2.0923e-54 2.369e-54 2.63172e-54 2.87142e-54 3.08088e-54 3.25542e-54 3.39331e-54 3.49589e-54 3.56719e-54 3.61332e-54 3.6416e-54 3.65968e-54 3.6746e-54 3.6922e-54 3.71658e-54 3.75e-54 3.7929e-54 3.84426e-54 3.90196e-54 3.96335e-54 4.02562e-54 4.08631e-54 4.14353e-54 4.19611e-54 4.24368e-54 4.28658e-54 4.32568e-54 4.36221e-54 4.3975e-54 4.43283e-54 4.46914e-54 4.50693e-54 4.54608e-54 4.58579e-54 4.62457e-54 4.66032e-54 4.69051e-54 4.71239e-54 4.72335e-54 4.72122e-54 4.70457e-54 4.67295e-54 4.62699e-54 4.56835e-54 4.49959e-54 4.42379e-54 4.34425e-54 4.26407e-54 4.18575e-54 4.11096e-54 4.04035e-54 3.97353e-54 3.90924e-54 3.84561e-54 3.78055e-54 3.7122e-54 3.63936e-54 3.5619e-54 3.48092e-54 3.39887e-54 3.31935e-54 3.24677e-54 3.18579e-54 3.14076e-54 3.11503e-54 3.11053e-54 3.12734e-54 3.16368e-54 3.216e-54 3.27942e-54 3.34831e-54 3.41689e-54 3.47996e-54 3.53344e-54 3.57472e-54 3.60292e-54 3.61876e-54 3.62437e-54 3.62287e-54 3.61784e-54 3.61286e-54 3.61094e-54 3.61414e-54 3.62333e-54 3.63793e-54 3.65602e-54 3.67439e-54 3.68883e-54 3.69447e-54 3.68621e-54 3.65916e-54 3.60909e-54 3.53275e-54 3.42822e-54 3.29507e-54 3.13434e-54 2.94852e-54 2.74132e-54 2.51741e-54 2.28213e-54 2.04114e-54 1.80012e-54 1.56449e-54 1.33913e-54 1.12819e-54 9.34935e-55 7.61643e-55 6.09581e-55 4.79043e-55 3.69442e-55 2.79471e-55 2.07278e-55 1.50671e-55 1.07305e-55 7.48529e-56 5.11323e-56 3.41984e-56 2.23915e-56 1.43514e-56 9.00364e-57 5.52907e-57 3.32358e-57 1.9557e-57 1.12662e-57 6.35436e-58 3.50945e-58 1.89819e-58 1.00563e-58 5.21923e-59 2.65412e-59 1.32269e-59 6.46113e-60 3.09423e-60 1.45304e-60 6.69235e-61 3.02373e-61 1.34049e-61 5.83219e-62 2.49082e-62 1.04445e-62 4.30095e-63 1.73965e-63 6.91306e-64 2.69951e-64 1.03608e-64 3.90924e-65 1.45032e-65 5.29175e-66 1.89926e-66 6.70667e-67 2.3305e-67 7.97071e-68 2.68366e-68 8.89604e-69 2.90201e-69 9.25412e-70 2.67483e-70 0 
0 3.05723e-97 1.69746e-96 9.04117e-96 4.76459e-95 2.48663e-94 1.28517e-93 6.57718e-93 3.33279e-92 1.67197e-91 8.30355e-91 4.082e-90 1.98617e-89 9.56434e-89 4.55769e-88 2.14905e-87 1.00257e-86 4.62708e-86 2.11242e-85 9.53866e-85 4.25975e-84 1.88114e-83 8.21401e-83 3.54596e-82 1.51325e-81 6.38312e-81 2.66104e-80 1.09626e-79 4.46235e-79 1.79453e-78 7.12887e-78 2.79715e-77 1.08387e-76 4.14715e-76 1.56665e-75 5.84233e-75 2.15044e-74 7.8115e-74 2.7999e-73 9.90122e-73 3.45386e-72 1.18829e-71 4.03158e-71 1.34862e-70 4.44731e-70 1.44552e-69 4.63014e-69 1.46128e-68 4.54324e-68 1.39127e-67 4.19556e-67 1.24572e-66 3.64101e-66 1.04739e-65 2.9648e-65 8.25647e-65 2.26162e-64 6.09226e-64 1.61355e-63 4.20085e-63 1.07486e-62 2.70226e-62 6.67378e-62 1.61878e-61 3.85544e-61 9.01437e-61 2.06857e-60 4.6578e-60 1.02888e-59 2.22906e-59 4.73533e-59 9.8617e-59 2.01291e-58 4.02597e-58 7.88842e-58 1.51387e-57 2.84491e-57 5.23406e-57 9.42563e-57 1.6611e-56 2.86426e-56 4.83151e-56 7.97138e-56 1.28617e-55 2.02917e-55 3.12996e-55 4.71974e-55 6.95704e-55 1.00238e-54 1.41169e-54 1.94334e-54 2.61506e-54 3.4402e-54 4.42505e-54 5.56643e-54 6.84988e-54 8.24882e-54 9.72533e-54 1.12323e-53 1.27171e-53 1.41267e-53 1.54125e-53 1.65358e-53 1.74714e-53 1.82103e-53 1.87596e-53 1.9141e-53 1.93873e-53 1.95379e-53 1.96337e-53 1.97125e-53 1.98056e-53 1.99351e-53 2.01129e-53 2.03416e-53 2.06156e-53 2.09236e-53 2.12513e-53 2.15838e-53 2.1908e-53 2.22136e-53 2.24944e-53 2.27485e-53 2.29777e-53 2.31865e-53 2.33816e-53 2.35701e-53 2.37588e-53 2.39527e-53 2.41545e-53 2.43635e-53 2.45755e-53 2.47825e-53 2.49734e-53 2.51346e-53 2.52514e-53 2.53099e-53 2.52985e-53 2.52096e-53 2.50407e-53 2.47952e-53 2.44821e-53 2.41149e-53 2.37101e-53 2.32855e-53 2.28574e-53 2.24393e-53 2.20401e-53 2.16632e-53 2.13066e-53 2.09635e-53 2.06238e-53 2.02765e-53 1.99114e-53 1.95223e-53 1.91083e-53 1.86754e-53 1.82366e-53 1.78114e-53 1.74232e-53 1.7097e-53 1.68561e-53 1.67185e-53 1.66944e-53 1.67843e-53 1.69787e-53 1.72586e-53 1.75979e-53 1.79664e-53 1.83333e-53 1.86707e-53 1.89568e-53 1.91776e-53 1.93284e-53 1.94131e-53 1.94431e-53 1.94349e-53 1.9408e-53 1.93812e-53 1.93708e-53 1.93879e-53 1.9437e-53 1.95151e-53 1.96118e-53 1.97101e-53 1.97874e-53 1.98178e-53 1.97738e-53 1.96294e-53 1.93618e-53 1.89536e-53 1.83946e-53 1.76822e-53 1.68221e-53 1.58273e-53 1.47178e-53 1.35183e-53 1.22575e-53 1.09656e-53 9.67299e-54 8.40879e-54 7.1992e-54 6.06655e-54 5.02845e-54 4.09725e-54 3.27985e-54 2.57793e-54 1.98842e-54 1.50436e-54 1.11588e-54 8.11202e-55 5.7776e-55 4.03045e-55 2.75327e-55 1.84144e-55 1.20567e-55 7.72718e-56 4.84753e-56 2.97661e-56 1.78912e-56 1.05267e-56 6.0634e-57 3.41945e-57 1.88828e-57 1.02118e-57 5.40922e-58 2.80694e-58 1.42717e-58 7.11115e-59 3.47306e-59 1.66294e-59 7.80774e-60 3.59538e-60 1.62416e-60 7.19893e-61 3.13153e-61 1.33717e-61 5.606e-62 2.30807e-62 9.33396e-63 3.7085e-63 1.44789e-63 5.55612e-64 2.09601e-64 7.77488e-65 2.83634e-65 1.01783e-65 3.5936e-66 1.24856e-66 4.26964e-67 1.43735e-67 4.76399e-68 1.55387e-68 4.95449e-69 1.43191e-69 0 
0 1.60971e-96 8.93705e-96 4.75987e-95 2.50826e-94 1.30899e-93 6.76496e-93 3.46197e-92 1.75418e-91 8.79991e-91 4.37016e-90 2.14829e-89 1.04526e-88 5.0333e-88 2.39847e-87 1.13091e-86 5.27583e-86 2.43489e-85 1.1116e-84 5.01946e-84 2.24159e-83 9.89913e-83 4.3225e-82 1.86604e-81 7.96356e-81 3.35924e-80 1.40046e-79 5.76964e-79 2.34865e-78 9.44552e-78 3.75247e-77 1.47243e-76 5.7059e-76 2.18336e-75 8.24857e-75 3.07627e-74 1.1324e-73 4.11383e-73 1.47467e-72 5.21536e-72 1.81947e-71 6.26054e-71 2.12429e-70 7.10694e-70 2.34393e-69 7.61955e-69 2.44096e-68 7.70484e-68 2.39586e-67 7.33793e-67 2.21321e-66 6.57245e-66 1.92134e-65 5.52799e-65 1.56507e-64 4.35929e-64 1.19433e-63 3.21788e-63 8.52437e-63 2.21977e-62 5.68086e-62 1.42851e-61 3.52878e-61 8.56122e-61 2.03949e-60 4.76959e-60 1.09475e-59 2.46562e-59 5.44767e-59 1.18051e-58 2.50841e-58 5.22516e-58 1.06677e-57 2.1341e-57 4.18246e-57 8.02831e-57 1.50903e-56 2.77689e-56 5.00169e-56 8.81629e-56 1.52049e-55 2.56525e-55 4.23304e-55 6.831e-55 1.07787e-54 1.66281e-54 2.50769e-54 3.69679e-54 5.3269e-54 7.50262e-54 1.03287e-53 1.38995e-53 1.82859e-53 2.35211e-53 2.95882e-53 3.641e-53 4.38451e-53 5.16915e-53 5.96986e-53 6.7587e-53 7.5074e-53 8.19021e-53 8.78652e-53 9.28304e-53 9.67495e-53 9.96609e-53 1.0168e-52 1.02982e-52 1.03774e-52 1.04276e-52 1.04688e-52 1.05175e-52 1.05855e-52 1.06792e-52 1.07998e-52 1.09445e-52 1.11072e-52 1.12804e-52 1.14562e-52 1.16275e-52 1.17891e-52 1.19376e-52 1.20719e-52 1.21931e-52 1.23035e-52 1.24066e-52 1.25063e-52 1.2606e-52 1.27085e-52 1.28151e-52 1.29256e-52 1.30377e-52 1.31471e-52 1.3248e-52 1.33332e-52 1.33949e-52 1.34258e-52 1.34198e-52 1.33728e-52 1.32835e-52 1.31537e-52 1.29882e-52 1.27941e-52 1.25801e-52 1.23557e-52 1.21294e-52 1.19085e-52 1.16976e-52 1.14985e-52 1.13101e-52 1.11288e-52 1.09494e-52 1.07658e-52 1.05728e-52 1.0367e-52 1.0148e-52 9.91892e-53 9.68672e-53 9.46161e-53 9.25608e-53 9.08337e-53 8.95578e-53 8.88289e-53 8.8701e-53 8.91772e-53 9.02065e-53 9.16888e-53 9.34857e-53 9.54373e-53 9.73803e-53 9.91671e-53 1.00682e-52 1.01851e-52 1.0265e-52 1.03098e-52 1.03256e-52 1.03213e-52 1.03069e-52 1.02927e-52 1.02871e-52 1.02961e-52 1.03221e-52 1.03634e-52 1.04147e-52 1.04667e-52 1.05078e-52 1.05239e-52 1.05008e-52 1.04245e-52 1.02829e-52 1.00669e-52 9.77094e-53 9.39369e-53 8.93802e-53 8.41089e-53 7.82271e-53 7.18665e-53 6.51779e-53 5.83217e-53 5.14593e-53 4.47446e-53 3.83173e-53 3.22963e-53 2.67758e-53 2.18218e-53 1.74717e-53 1.3735e-53 1.05957e-53 8.01739e-54 5.94762e-54 4.32407e-54 3.07991e-54 2.14863e-54 1.46779e-54 9.81682e-55 6.42732e-55 4.11912e-55 2.58391e-55 1.58652e-55 9.53499e-56 5.60953e-56 3.23071e-56 1.82171e-56 1.00583e-56 5.43872e-57 2.88044e-57 1.49446e-57 7.5971e-58 3.78472e-58 1.8481e-58 8.84726e-59 4.1531e-59 1.91209e-59 8.63586e-60 3.82701e-60 1.66442e-60 7.10572e-61 2.97844e-61 1.22603e-61 4.95718e-62 1.96918e-62 7.68673e-63 2.94915e-63 1.11235e-63 4.12539e-64 1.50472e-64 5.39881e-65 1.90582e-65 6.62049e-66 2.26364e-66 7.61924e-67 2.52498e-67 8.23459e-68 2.62524e-68 7.58645e-69 0 
0 8.39341e-96 4.65974e-95 2.48164e-94 1.30766e-93 6.82396e-93 3.52652e-92 1.80462e-91 9.14366e-91 4.58679e-90 2.2778e-89 1.11969e-88 5.44779e-88 2.62324e-87 1.25001e-86 5.89388e-86 2.74954e-85 1.26896e-84 5.79319e-84 2.61593e-83 1.16823e-82 5.15912e-82 2.25279e-81 9.72561e-81 4.15063e-80 1.7509e-79 7.29975e-79 3.00748e-78 1.22431e-77 4.92404e-77 1.95631e-76 7.67683e-76 2.97509e-75 1.1385e-74 4.30149e-74 1.60436e-73 5.90632e-73 2.14587e-72 7.69301e-72 2.72102e-71 9.49382e-71 3.26707e-70 1.1087e-69 3.7097e-69 1.22366e-68 3.97838e-68 1.27468e-67 4.02413e-67 1.25152e-66 3.83375e-66 1.1565e-65 3.43501e-65 1.00435e-64 2.89022e-64 8.18429e-64 2.28008e-63 6.24809e-63 1.68378e-62 4.46139e-62 1.16201e-61 2.9745e-61 7.48141e-61 1.84852e-60 4.48577e-60 1.06887e-59 2.50028e-59 5.74023e-59 1.29314e-58 2.85782e-58 6.19439e-58 1.31654e-57 2.74309e-57 5.60166e-57 1.12089e-56 2.19726e-56 4.21865e-56 7.9313e-56 1.45982e-55 2.62997e-55 4.63669e-55 7.99815e-55 1.34964e-54 2.22749e-54 3.59516e-54 5.67367e-54 8.7539e-54 1.32034e-53 1.94663e-53 2.80527e-53 3.95137e-53 5.44013e-53 7.32123e-53 9.63193e-53 1.23898e-52 1.55857e-52 1.91789e-52 2.30947e-52 2.72268e-52 3.14428e-52 3.55956e-52 3.95362e-52 4.31291e-52 4.62659e-52 4.88766e-52 5.09361e-52 5.24649e-52 5.35238e-52 5.42048e-52 5.46181e-52 5.48781e-52 5.50908e-52 5.53433e-52 5.5697e-52 5.61857e-52 5.6816e-52 5.75727e-52 5.84244e-52 5.93313e-52 6.02519e-52 6.11495e-52 6.19958e-52 6.27736e-52 6.34775e-52 6.41122e-52 6.46906e-52 6.52308e-52 6.57527e-52 6.6275e-52 6.68118e-52 6.73703e-52 6.79488e-52 6.85355e-52 6.91086e-52 6.96369e-52 7.0083e-52 7.04064e-52 7.05683e-52 7.05367e-52 7.02903e-52 6.98227e-52 6.91429e-52 6.82759e-52 6.72592e-52 6.61387e-52 6.49632e-52 6.37786e-52 6.26219e-52 6.15178e-52 6.04756e-52 5.94897e-52 5.85409e-52 5.76015e-52 5.66402e-52 5.56292e-52 5.45509e-52 5.3403e-52 5.22019e-52 5.09842e-52 4.98035e-52 4.87253e-52 4.78192e-52 4.71497e-52 4.67671e-52 4.67e-52 4.69498e-52 4.74899e-52 4.82677e-52 4.92106e-52 5.02347e-52 5.12543e-52 5.21919e-52 5.29866e-52 5.36001e-52 5.40188e-52 5.42538e-52 5.43365e-52 5.43134e-52 5.42379e-52 5.41629e-52 5.41335e-52 5.41805e-52 5.43164e-52 5.45332e-52 5.48021e-52 5.50756e-52 5.52912e-52 5.53767e-52 5.5256e-52 5.48565e-52 5.41147e-52 5.29821e-52 5.14298e-52 4.94502e-52 4.70585e-52 4.42908e-52 4.12014e-52 3.78593e-52 3.43435e-52 3.07381e-52 2.71279e-52 2.35939e-52 2.02097e-52 1.70381e-52 1.41289e-52 1.15173e-52 9.22319e-53 7.25185e-53 5.59526e-53 4.23428e-53 3.1415e-53 2.28414e-53 1.62703e-53 1.1351e-53 7.75431e-54 5.18618e-54 3.39543e-54 2.17595e-54 1.36487e-54 8.37959e-55 5.03563e-55 2.96217e-55 1.70579e-55 9.61714e-56 5.30916e-56 2.87029e-56 1.51989e-56 7.88422e-57 4.00722e-57 1.99593e-57 9.74432e-58 4.66388e-58 2.18889e-58 1.00756e-58 4.54965e-59 2.01577e-59 8.76505e-60 3.74119e-60 1.56784e-60 6.45245e-61 2.60838e-61 1.03594e-61 4.04302e-62 1.55088e-62 5.84843e-63 2.16861e-63 7.90846e-64 2.83699e-64 1.00131e-64 3.47778e-65 1.18891e-65 4.00114e-66 1.32575e-66 4.32298e-67 1.378e-67 3.9817e-68 0 
0 4.3339e-95 2.40591e-94 1.28125e-93 6.751e-93 3.52283e-92 1.82047e-91 9.31552e-91 4.71982e-90 2.36756e-89 1.1757e-88 5.7792e-88 2.81177e-87 1.35392e-86 6.4515e-86 3.0419e-85 1.41907e-84 6.54922e-84 2.98994e-83 1.35013e-82 6.0295e-82 2.66279e-81 1.16276e-80 5.01995e-80 2.14244e-79 9.038e-79 3.76823e-78 1.55257e-77 6.32068e-77 2.54225e-76 1.01009e-75 3.96401e-75 1.53633e-74 5.87965e-74 2.22165e-73 8.28699e-73 3.05108e-72 1.10862e-71 3.97488e-71 1.40607e-70 4.90648e-70 1.68866e-69 5.73134e-69 1.91796e-68 6.3274e-68 2.05748e-67 6.59325e-67 2.08181e-66 6.4756e-66 1.984e-65 5.9861e-65 1.77831e-64 5.20052e-64 1.49685e-63 4.23955e-63 1.18135e-62 3.23796e-62 8.72779e-62 2.31306e-61 6.026e-61 1.54289e-60 3.88157e-60 9.59297e-60 2.32849e-59 5.54971e-59 1.29851e-58 2.98191e-58 6.71925e-58 1.48533e-57 3.2203e-57 6.8461e-57 1.42679e-56 2.91438e-56 5.83312e-56 1.14374e-55 2.19646e-55 4.13044e-55 7.60416e-55 1.37024e-54 2.41629e-54 4.16888e-54 7.03608e-54 1.16147e-53 1.87493e-53 2.95938e-53 4.56668e-53 6.88877e-53 1.01576e-52 1.46394e-52 2.06221e-52 2.83938e-52 3.82138e-52 5.02764e-52 6.46729e-52 8.13554e-52 1.0011e-51 1.20547e-51 1.42109e-51 1.64107e-51 1.8577e-51 2.06322e-51 2.25054e-51 2.41403e-51 2.55004e-51 2.65727e-51 2.73679e-51 2.7918e-51 2.82709e-51 2.84842e-51 2.86176e-51 2.87263e-51 2.88557e-51 2.90379e-51 2.92904e-51 2.96167e-51 3.00088e-51 3.04505e-51 3.0921e-51 3.13987e-51 3.18645e-51 3.23037e-51 3.27074e-51 3.30727e-51 3.34021e-51 3.37023e-51 3.39826e-51 3.42535e-51 3.45245e-51 3.4803e-51 3.50928e-51 3.53929e-51 3.56973e-51 3.59947e-51 3.62688e-51 3.65003e-51 3.66681e-51 3.67521e-51 3.67357e-51 3.66079e-51 3.63651e-51 3.60124e-51 3.55624e-51 3.50348e-51 3.44534e-51 3.38435e-51 3.32289e-51 3.26289e-51 3.20562e-51 3.15157e-51 3.10045e-51 3.05125e-51 3.00253e-51 2.95266e-51 2.9002e-51 2.84422e-51 2.7846e-51 2.72221e-51 2.65894e-51 2.59758e-51 2.54154e-51 2.49443e-51 2.45962e-51 2.43973e-51 2.43624e-51 2.44923e-51 2.47731e-51 2.51775e-51 2.56677e-51 2.62002e-51 2.67303e-51 2.72177e-51 2.76309e-51 2.79497e-51 2.81673e-51 2.82893e-51 2.83322e-51 2.832e-51 2.82805e-51 2.82414e-51 2.82259e-51 2.82502e-51 2.83208e-51 2.84335e-51 2.85733e-51 2.87157e-51 2.8828e-51 2.88728e-51 2.88105e-51 2.86034e-51 2.82182e-51 2.76299e-51 2.68232e-51 2.57941e-51 2.45503e-51 2.31104e-51 2.15026e-51 1.97627e-51 1.79316e-51 1.6053e-51 1.41711e-51 1.23281e-51 1.05625e-51 8.90704e-52 7.38793e-52 6.02364e-52 4.82477e-52 3.79422e-52 2.92794e-52 2.21605e-52 1.64432e-52 1.19566e-52 8.5174e-53 5.94239e-53 4.05953e-53 2.71503e-53 1.77749e-53 1.13904e-53 7.14414e-54 4.38573e-54 2.63528e-54 1.54999e-54 8.9245e-55 5.03083e-55 2.77683e-55 1.50097e-55 7.9466e-56 4.12141e-56 2.09433e-56 1.04294e-56 5.09068e-57 2.43602e-57 1.14304e-57 5.26035e-58 2.37481e-58 1.05196e-58 4.57315e-59 1.95154e-59 8.17664e-60 3.36437e-60 1.35975e-60 5.3992e-61 2.10674e-61 8.07968e-62 3.04628e-62 1.12934e-62 4.11769e-63 1.47686e-63 5.21156e-64 1.80978e-64 6.1858e-65 2.08142e-65 6.89553e-66 2.24812e-66 7.16508e-67 2.07008e-67 0 
0 2.21581e-94 1.23002e-93 6.55007e-93 3.45112e-92 1.8008e-91 9.30551e-91 4.76156e-90 2.41242e-89 1.21009e-88 6.00898e-88 2.95369e-87 1.43704e-86 6.91952e-86 3.29717e-85 1.55462e-84 7.2524e-84 3.34711e-83 1.52808e-82 6.90025e-82 3.08162e-81 1.36096e-80 5.94307e-80 2.56586e-79 1.09511e-78 4.61998e-78 1.92631e-77 7.93711e-77 3.23146e-76 1.29981e-75 5.1648e-75 2.02703e-74 7.85677e-74 3.0071e-73 1.13635e-72 4.23911e-72 1.56091e-71 5.67225e-71 2.03397e-70 7.19585e-70 2.5113e-69 8.6443e-69 2.9343e-68 9.82094e-68 3.24044e-67 1.05386e-66 3.37769e-66 1.06668e-65 3.31859e-65 1.01694e-64 3.06889e-64 9.11863e-64 2.66722e-63 7.6786e-63 2.17528e-62 6.06279e-62 1.66212e-61 4.48123e-61 1.18791e-60 3.0955e-60 7.92762e-60 1.99492e-59 4.93154e-59 1.19733e-58 2.85447e-58 6.68058e-58 1.53455e-57 3.45878e-57 7.64789e-57 1.65857e-56 3.52692e-56 7.35239e-56 1.50221e-55 3.00745e-55 5.89843e-55 1.13304e-54 2.1312e-54 3.9245e-54 7.07347e-54 1.24762e-53 2.153e-53 3.6345e-53 6.00077e-53 9.68862e-53 1.5295e-52 2.36056e-52 3.56136e-52 5.2519e-52 7.56998e-52 1.06645e-51 1.46847e-51 1.97644e-51 2.60042e-51 3.3451e-51 4.20798e-51 5.17798e-51 6.23486e-51 7.34978e-51 8.487e-51 9.60672e-51 1.06687e-50 1.16364e-50 1.24807e-50 1.31827e-50 1.37357e-50 1.41455e-50 1.44285e-50 1.46096e-50 1.47185e-50 1.47862e-50 1.48411e-50 1.49068e-50 1.49997e-50 1.51289e-50 1.52962e-50 1.54975e-50 1.57244e-50 1.59662e-50 1.62118e-50 1.64513e-50 1.66771e-50 1.68847e-50 1.70725e-50 1.72419e-50 1.73962e-50 1.75403e-50 1.76796e-50 1.78189e-50 1.7962e-50 1.8111e-50 1.82653e-50 1.84218e-50 1.85746e-50 1.87155e-50 1.88345e-50 1.89208e-50 1.8964e-50 1.89556e-50 1.88899e-50 1.87651e-50 1.85837e-50 1.83523e-50 1.80811e-50 1.77822e-50 1.74686e-50 1.71527e-50 1.68444e-50 1.65501e-50 1.62725e-50 1.60098e-50 1.57571e-50 1.55068e-50 1.52505e-50 1.49808e-50 1.46929e-50 1.43861e-50 1.40651e-50 1.37394e-50 1.34234e-50 1.31348e-50 1.28922e-50 1.27129e-50 1.26105e-50 1.25924e-50 1.26593e-50 1.2804e-50 1.30123e-50 1.32649e-50 1.35391e-50 1.38122e-50 1.40632e-50 1.4276e-50 1.44402e-50 1.45522e-50 1.4615e-50 1.4637e-50 1.46306e-50 1.46101e-50 1.45899e-50 1.45818e-50 1.45943e-50 1.46306e-50 1.46886e-50 1.47607e-50 1.48341e-50 1.48921e-50 1.49154e-50 1.48836e-50 1.47772e-50 1.45791e-50 1.42764e-50 1.38611e-50 1.3331e-50 1.26902e-50 1.19481e-50 1.11191e-50 1.02217e-50 9.27676e-51 8.30696e-51 7.33502e-51 6.38274e-51 5.47e-51 4.61385e-51 3.82786e-51 3.12169e-51 2.5009e-51 1.96708e-51 1.51821e-51 1.14924e-51 8.52829e-52 6.20186e-52 4.41821e-52 3.08259e-52 2.10588e-52 1.4084e-52 9.22026e-53 5.90811e-53 3.70532e-53 2.27444e-53 1.3665e-53 8.03627e-54 4.62644e-54 2.60755e-54 1.43902e-54 7.77702e-55 4.11659e-55 2.1346e-55 1.08449e-55 5.39942e-56 2.63492e-56 1.2606e-56 5.91373e-57 2.72091e-57 1.22809e-57 5.43874e-58 2.36383e-58 1.0085e-58 4.22451e-59 1.73783e-59 7.02206e-60 2.78766e-60 1.08749e-60 4.16982e-61 1.57181e-61 5.82596e-62 2.12377e-62 7.61564e-63 2.6869e-63 9.32885e-64 3.18801e-64 1.07252e-64 3.55254e-65 1.15803e-65 3.69022e-66 1.06601e-66 0 
0 1.12166e-93 6.22616e-93 3.31539e-92 1.74675e-91 9.11422e-91 4.70955e-90 2.40976e-89 1.22086e-88 6.12379e-88 3.04085e-87 1.49469e-86 7.27197e-86 3.5015e-85 1.66847e-84 7.86684e-84 3.66995e-83 1.69376e-82 7.73275e-82 3.49189e-81 1.5595e-80 6.88749e-80 3.00775e-79 1.29861e-78 5.54274e-78 2.33844e-77 9.75068e-77 4.01788e-76 1.63592e-75 6.58072e-75 2.61504e-74 1.02641e-73 3.9787e-73 1.52295e-72 5.75562e-72 2.14734e-71 7.90771e-71 2.87395e-70 1.03068e-69 3.64684e-69 1.2729e-68 4.38213e-68 1.48773e-67 4.98013e-67 1.64347e-66 5.34584e-66 1.71367e-65 5.41281e-65 1.68431e-64 5.16238e-64 1.5582e-63 4.63087e-63 1.35483e-62 3.90126e-62 1.10544e-61 3.08173e-61 8.45063e-61 2.27892e-60 6.04262e-60 1.57501e-59 4.03467e-59 1.01556e-58 2.51119e-58 6.0986e-58 1.45432e-57 3.40462e-57 7.82271e-57 1.76369e-56 3.90088e-56 8.46208e-56 1.79996e-55 3.75334e-55 7.67078e-55 1.53613e-54 3.01359e-54 5.79037e-54 1.08943e-53 2.00665e-53 3.61764e-53 6.38229e-53 1.10164e-52 1.86008e-52 3.07172e-52 4.96043e-52 7.83218e-52 1.20898e-51 1.82424e-51 2.69052e-51 3.87849e-51 5.46449e-51 7.52495e-51 1.01285e-50 1.33267e-50 1.71434e-50 2.15657e-50 2.65364e-50 3.19518e-50 3.76637e-50 4.34889e-50 4.9223e-50 5.46601e-50 5.96128e-50 6.39318e-50 6.75211e-50 7.03469e-50 7.24382e-50 7.38801e-50 7.48002e-50 7.53509e-50 7.56905e-50 7.59651e-50 7.62945e-50 7.67635e-50 7.74183e-50 7.82681e-50 7.92918e-50 8.04465e-50 8.16774e-50 8.2928e-50 8.41477e-50 8.5298e-50 8.63553e-50 8.7312e-50 8.81746e-50 8.89606e-50 8.96946e-50 9.04037e-50 9.11131e-50 9.18421e-50 9.26005e-50 9.33861e-50 9.4183e-50 9.49614e-50 9.56791e-50 9.62852e-50 9.67247e-50 9.69449e-50 9.69019e-50 9.65672e-50 9.59316e-50 9.50077e-50 9.38294e-50 9.24477e-50 9.09253e-50 8.93287e-50 8.77202e-50 8.61504e-50 8.46526e-50 8.32394e-50 8.19029e-50 8.06167e-50 7.93427e-50 7.80379e-50 7.66643e-50 7.51975e-50 7.36343e-50 7.19973e-50 7.03364e-50 6.87248e-50 6.72524e-50 6.60146e-50 6.50997e-50 6.45768e-50 6.44848e-50 6.48261e-50 6.55643e-50 6.66275e-50 6.79164e-50 6.93161e-50 7.07095e-50 7.19906e-50 7.30763e-50 7.39138e-50 7.44849e-50 7.48046e-50 7.49162e-50 7.48829e-50 7.47782e-50 7.46742e-50 7.46326e-50 7.46957e-50 7.48808e-50 7.5177e-50 7.5545e-50 7.59202e-50 7.62172e-50 7.63372e-50 7.61765e-50 7.56352e-50 7.46263e-50 7.30831e-50 7.09649e-50 6.82607e-50 6.49899e-50 6.12007e-50 5.69664e-50 5.23803e-50 4.75498e-50 4.25899e-50 3.76166e-50 3.27417e-50 2.8067e-50 2.36801e-50 1.96509e-50 1.60293e-50 1.28444e-50 1.01046e-50 7.80011e-51 5.90525e-51 4.38268e-51 3.1874e-51 2.27084e-51 1.58442e-51 1.08241e-51 7.23895e-52 4.73886e-52 3.03634e-52 1.90411e-52 1.16868e-52 7.02063e-53 4.1282e-53 2.37621e-53 1.33905e-53 7.38847e-54 3.99224e-54 2.11277e-54 1.09532e-54 5.56357e-55 2.76935e-55 1.35114e-55 6.46258e-56 3.03102e-56 1.39424e-56 6.2914e-57 2.78555e-57 1.21039e-57 5.16276e-58 2.16211e-58 8.89211e-59 3.59219e-59 1.42572e-59 5.56059e-60 2.13164e-60 8.03342e-61 2.97696e-61 1.08498e-61 3.88981e-62 1.3721e-62 4.76295e-63 1.62736e-63 5.47379e-64 1.81277e-64 5.90809e-65 1.88239e-65 5.43701e-66 0 
0 5.62115e-93 3.12009e-92 1.66136e-91 8.75272e-91 4.56685e-90 2.35973e-89 1.20738e-88 6.11685e-88 3.06812e-87 1.52349e-86 7.48844e-86 3.64324e-85 1.75424e-84 8.35895e-84 3.94127e-83 1.83865e-82 8.4859e-82 3.87425e-81 1.74954e-80 7.81376e-80 3.45104e-79 1.50712e-78 6.50735e-78 2.7776e-77 1.17191e-76 4.88684e-76 2.01381e-75 8.19999e-75 3.29882e-74 1.31099e-73 5.1461e-73 1.99499e-72 7.63708e-72 2.88655e-71 1.07705e-70 3.96679e-70 1.44186e-69 5.17157e-69 1.8301e-68 6.38873e-68 2.19975e-67 7.46932e-67 2.50074e-66 8.25401e-66 2.68532e-65 8.60973e-65 2.71999e-64 8.46553e-64 2.5952e-63 7.83496e-63 2.32901e-62 6.8154e-62 1.96296e-61 5.56351e-61 1.55136e-60 4.25517e-60 1.14781e-59 3.04424e-59 7.93693e-59 2.03375e-58 5.12053e-58 1.26652e-57 3.0767e-57 7.33908e-57 1.71861e-56 3.94996e-56 8.90813e-56 1.97086e-55 4.2766e-55 9.09941e-55 1.898e-54 3.88012e-54 7.77247e-54 1.52524e-53 2.93145e-53 5.5169e-53 1.01644e-52 1.83294e-52 3.2345e-52 5.58435e-52 9.43114e-52 1.55778e-51 2.51611e-51 3.9735e-51 6.13454e-51 9.25786e-51 1.3656e-50 1.96879e-50 2.77415e-50 3.82047e-50 5.14262e-50 6.76671e-50 8.70483e-50 1.09503e-49 1.34741e-49 1.62232e-49 1.91225e-49 2.20785e-49 2.49878e-49 2.77455e-49 3.02566e-49 3.24454e-49 3.42633e-49 3.56934e-49 3.67505e-49 3.7478e-49 3.79408e-49 3.82163e-49 3.83848e-49 3.85204e-49 3.86839e-49 3.89182e-49 3.92468e-49 3.96742e-49 4.01898e-49 4.07718e-49 4.13926e-49 4.20235e-49 4.26388e-49 4.32192e-49 4.37526e-49 4.42353e-49 4.46705e-49 4.50671e-49 4.54373e-49 4.5795e-49 4.61528e-49 4.65205e-49 4.69031e-49 4.72993e-49 4.77013e-49 4.8094e-49 4.84561e-49 4.87619e-49 4.89837e-49 4.90948e-49 4.90732e-49 4.89043e-49 4.85836e-49 4.81175e-49 4.75229e-49 4.68258e-49 4.60578e-49 4.52524e-49 4.44411e-49 4.36494e-49 4.28942e-49 4.21818e-49 4.1508e-49 4.08597e-49 4.02174e-49 3.95595e-49 3.88666e-49 3.81264e-49 3.73371e-49 3.65104e-49 3.56713e-49 3.48571e-49 3.4113e-49 3.34873e-49 3.30248e-49 3.27604e-49 3.27139e-49 3.28865e-49 3.32597e-49 3.37972e-49 3.44488e-49 3.51564e-49 3.58608e-49 3.65084e-49 3.70571e-49 3.74803e-49 3.77687e-49 3.793e-49 3.79861e-49 3.79689e-49 3.79156e-49 3.78628e-49 3.78415e-49 3.78732e-49 3.79667e-49 3.81164e-49 3.83027e-49 3.84927e-49 3.86433e-49 3.87047e-49 3.86242e-49 3.83516e-49 3.78426e-49 3.70634e-49 3.59934e-49 3.46267e-49 3.2973e-49 3.10565e-49 2.89139e-49 2.65924e-49 2.41462e-49 2.16331e-49 1.91122e-49 1.66399e-49 1.4268e-49 1.20411e-49 9.99476e-50 8.15468e-50 6.53579e-50 5.14267e-50 3.97047e-50 3.00636e-50 2.23147e-50 1.62302e-50 1.15638e-50 8.06855e-51 5.51211e-51 3.68633e-51 2.41308e-51 1.54603e-51 9.69435e-52 5.94941e-52 3.57353e-52 2.10096e-52 1.20913e-52 6.8125e-53 3.75819e-53 2.03027e-53 1.07423e-53 5.56784e-54 2.82749e-54 1.40709e-54 6.8634e-55 3.28201e-55 1.53891e-55 7.07706e-56 3.19266e-56 1.41321e-56 6.13917e-57 2.61792e-57 1.09608e-57 4.50674e-58 1.82016e-58 7.22233e-59 2.81618e-59 1.07932e-59 4.06664e-60 1.50664e-60 5.48982e-61 1.96776e-61 6.93963e-62 2.40844e-62 8.22727e-63 2.76678e-63 9.16109e-64 2.98518e-64 9.50948e-65 2.74628e-65 0 