# vtk DataFile Version 3.0
Gray-Scott Simulation Output
ASCII
DATASET STRUCTURED_POINTS
DIMENSIONS 256 256 1
SPACING 1.0 1.0 1.0
ORIGIN 0 0 0
POINT_DATA 65536
SCALARS u double
LOOKUP_TABLE default
0 0 0 0 0 0 0 0 0 0 0 0 0 0 0 0 0 0 0 0 0 0 0 0 0 0 0 0 0 0 0 0 0 0 0 0 0 0 0 0 0 0 0 0 0 0 0 0 0 0 0 0 0 0 0 0 0 0 0 0 0 0 0 0 0 0 0 0 0 0 0 0 0 0 0 0 0 0 0 0 0 0 0 0 0 0 0 0 0 0 0 0 0 0 0 0 0 0 0 0 0 0 0 0 0 0 0 0 0 0 0 0 0 0 0 0 0 0 0 0 0 0 0 0 0 0 0 0 0 0 0 0 0 0 0 0 0 0 0 0 0 0 0 0 0 0 0 0 0 0 0 0 0 0 0 0 0 0 0 0 0 0 0 0 0 0 0 0 0 0 0 0 0 0 0 0 0 0 0 0 0 0 0 0 0 0 0 0 0 0 0 0 0 0 0 0 0 0 0 0 0 0 0 0 0 0 0 0 0 0 0 0 0 0 0 0 0 0 0 0 0 0 0 0 0 0 0 0 0 0 0 0 0 0 0 0 0 0 0 0 0 0 0 0 0 0 0 0 0 0 0 0 0 0 0 0 
0 2.12108e-104 1.30443e-103 7.74053e-103 4.54537e-102 2.64285e-101 1.52143e-100 8.67096e-100 4.89193e-99 2.73181e-98 1.50986e-97 8.25846e-97 4.46986e-96 2.39375e-95 1.26826e-94 6.64724e-94 3.44611e-93 1.76696e-92 8.95958e-92 4.49224e-91 2.22692e-90 1.09134e-89 5.28668e-89 2.53116e-88 1.19761e-87 5.59911e-87 2.58628e-86 1.18012e-85 5.31886e-85 2.3675e-84 1.0406e-83 4.51586e-83 1.93462e-82 8.18063e-82 3.4139e-81 1.40579e-80 5.71125e-80 2.28883e-79 9.04685e-79 3.52624e-78 1.35514e-77 5.13381e-77 1.91692e-76 7.05342e-76 2.55709e-75 9.13198e-75 3.21198e-74 1.11246e-73 3.79331e-73 1.27316e-72 4.20524e-72 1.36663e-71 4.36886e-71 1.37357e-70 4.24621e-70 1.29039e-69 3.85399e-69 1.13101e-68 3.26049e-68 9.23119e-68 2.56615e-67 7.00235e-67 1.87515e-66 4.92653e-66 1.26954e-65 3.20803e-65 7.94686e-65 1.92931e-64 4.58919e-64 1.06925e-63 2.43953e-63 5.44878e-63 1.19106e-62 2.54736e-62 5.32898e-62 1.09013e-61 2.18006e-61 4.2609e-61 8.13694e-61 1.51787e-60 2.76513e-60 4.91813e-60 8.53861e-60 1.44673e-59 2.39173e-59 3.85733e-59 6.06798e-59 9.30951e-59 1.39281e-58 2.03193e-58 2.89043e-58 4.00921e-58 5.42281e-58 7.15334e-58 9.20434e-58 1.15555e-57 1.41594e-57 1.69421e-57 1.98064e-57 2.26404e-57 2.5328e-57 2.77619e-57 2.98558e-57 3.15546e-57 3.28397e-57 3.37305e-57 3.42798e-57 3.4565e-57 3.46771e-57 3.47087e-57 3.47428e-57 3.48447e-57 3.50571e-57 3.53986e-57 3.58658e-57 3.64381e-57 3.7083e-57 3.77633e-57 3.84425e-57 3.90901e-57 3.9684e-57 4.0213e-57 4.06756e-57 4.10792e-57 4.14373e-57 4.17674e-57 4.2088e-57 4.24162e-57 4.27656e-57 4.31442e-57 4.35528e-57 4.39837e-57 4.44206e-57 4.48386e-57 4.52065e-57 4.54894e-57 4.5653e-57 4.5668e-57 4.55147e-57 4.51856e-57 4.46879e-57 4.40423e-57 4.32813e-57 4.24447e-57 4.15749e-57 4.07116e-57 3.98866e-57 3.91205e-57 3.84207e-57 3.77804e-57 3.71813e-57 3.65961e-57 3.59941e-57 3.53466e-57 3.46328e-57 3.38455e-57 3.29937e-57 3.21048e-57 3.12221e-57 3.04008e-57 2.97012e-57 2.918e-57 2.88826e-57 2.88354e-57 2.90416e-57 2.94796e-57 3.01053e-57 3.08572e-57 3.16641e-57 3.24542e-57 3.31634e-57 3.37427e-57 3.4163e-57 3.44171e-57 3.45184e-57 3.44976e-57 3.43971e-57 3.42644e-57 3.41458e-57 3.40799e-57 3.40934e-57 3.41974e-57 3.43861e-57 3.46371e-57 3.49129e-57 3.51638e-57 3.53325e-57 3.53588e-57 3.51853e-57 3.47622e-57 3.40527e-57 3.30356e-57 3.17078e-57 3.0084e-57 2.81955e-57 2.60868e-57 2.38126e-57 2.14332e-57 1.9011e-57 1.6607e-57 1.42776e-57 1.20722e-57 1.00316e-57 8.18594e-58 6.55484e-58 5.14673e-58 3.95985e-58 2.9835e-58 2.20003e-58 1.58696e-58 1.11932e-58 7.71682e-59 5.19872e-59 3.42164e-59 2.1998e-59 1.38135e-59 8.47182e-60 5.07458e-60 2.96888e-60 1.69664e-60 9.47189e-61 5.16647e-61 2.75379e-61 1.43458e-61 7.30574e-62 3.63779e-62 1.77151e-62 8.43885e-63 3.93334e-63 1.79426e-63 8.01244e-64 3.50357e-64 1.5005e-64 6.2958e-65 2.58863e-65 1.04329e-65 4.12261e-66 1.59764e-66 6.07348e-67 2.26547e-67 8.29371e-68 2.9807e-68 1.05189e-68 3.64598e-69 1.24151e-69 4.15411e-70 1.36616e-70 4.41688e-71 1.40416e-71 4.3904e-72 1.35041e-72 4.08676e-73 1.21665e-73 3.54616e-74 9.48141e-75 0 
0 1.30347e-103 8.01526e-103 4.75574e-102 2.79234e-101 1.6234e-100 9.34456e-100 5.32513e-99 3.004e-98 1.67736e-97 9.26986e-97 5.06985e-96 2.74379e-95 1.46926e-94 7.7838e-94 4.07932e-93 2.11467e-92 1.0842e-91 5.49714e-91 2.75602e-90 1.36614e-89 6.6946e-89 3.24281e-88 1.55251e-87 7.34526e-87 3.43392e-86 1.58608e-85 7.23703e-85 3.26163e-84 1.45175e-83 6.38079e-83 2.76897e-82 1.18622e-81 5.0159e-81 2.09318e-80 8.61933e-80 3.50173e-79 1.40334e-78 5.54689e-78 2.16206e-77 8.30896e-77 3.14783e-76 1.1754e-75 4.32506e-75 1.56803e-74 5.60001e-74 1.96977e-73 6.82257e-73 2.3265e-72 7.80896e-72 2.57945e-71 8.38332e-71 2.68019e-70 8.42718e-70 2.60536e-69 7.91819e-69 2.36513e-68 6.94147e-68 2.00131e-67 5.66674e-67 1.57545e-66 4.29949e-66 1.15149e-65 3.02564e-65 7.79791e-65 1.97072e-64 4.88247e-64 1.18551e-63 2.82031e-63 6.57203e-63 1.49964e-62 3.34998e-62 7.32384e-62 1.56659e-61 3.27771e-61 6.70601e-61 1.34127e-60 2.62185e-60 5.00755e-60 9.34235e-60 1.70213e-59 3.0278e-59 5.25732e-59 8.90864e-59 1.47293e-58 2.37573e-58 3.7376e-58 5.73468e-58 8.58034e-58 1.25184e-57 1.78084e-57 2.47024e-57 3.34133e-57 4.40773e-57 5.6716e-57 7.1204e-57 8.72497e-57 1.04396e-56 1.22045e-56 1.39506e-56 1.56064e-56 1.71059e-56 1.83958e-56 1.94423e-56 2.02339e-56 2.07826e-56 2.11209e-56 2.12965e-56 2.13654e-56 2.13845e-56 2.14051e-56 2.14673e-56 2.15973e-56 2.18066e-56 2.20932e-56 2.24443e-56 2.28401e-56 2.32577e-56 2.36746e-56 2.40722e-56 2.44368e-56 2.47616e-56 2.50457e-56 2.52935e-56 2.55135e-56 2.57162e-56 2.59131e-56 2.61146e-56 2.63291e-56 2.65615e-56 2.68122e-56 2.70766e-56 2.73446e-56 2.7601e-56 2.78267e-56 2.80002e-56 2.81005e-56 2.81096e-56 2.80154e-56 2.78134e-56 2.75079e-56 2.71116e-56 2.66446e-56 2.61312e-56 2.55975e-56 2.50678e-56 2.45616e-56 2.40917e-56 2.36623e-56 2.32696e-56 2.2902e-56 2.25429e-56 2.21734e-56 2.17758e-56 2.13374e-56 2.08537e-56 2.03304e-56 1.97841e-56 1.92416e-56 1.87369e-56 1.83068e-56 1.79864e-56 1.78035e-56 1.77744e-56 1.79011e-56 1.81703e-56 1.85548e-56 1.90169e-56 1.95129e-56 1.99986e-56 2.04346e-56 2.07907e-56 2.10492e-56 2.12055e-56 2.12679e-56 2.12553e-56 2.11936e-56 2.11121e-56 2.10392e-56 2.09987e-56 2.10069e-56 2.10706e-56 2.11864e-56 2.13405e-56 2.15098e-56 2.16638e-56 2.17674e-56 2.17836e-56 2.16769e-56 2.1417e-56 2.09809e-56 2.03558e-56 1.95395e-56 1.85411e-56 1.73796e-56 1.60824e-56 1.4683e-56 1.32183e-56 1.17269e-56 1.02461e-56 8.81068e-57 7.45126e-57 6.19292e-57 5.05447e-57 4.04803e-57 3.17893e-57 2.44618e-57 1.84327e-57 1.35936e-57 9.80638e-58 6.91711e-58 4.76902e-58 3.21292e-58 2.11467e-58 1.35954e-58 8.53697e-59 5.23554e-59 3.13593e-59 1.83457e-59 1.04834e-59 5.85217e-60 3.19182e-60 1.70112e-60 8.86111e-61 4.51214e-61 2.24652e-61 1.09388e-61 5.21025e-62 2.42821e-62 1.10754e-62 4.94525e-63 2.16214e-63 9.25885e-64 3.88438e-64 1.59695e-64 6.43545e-65 2.5427e-65 9.8527e-66 3.74514e-66 1.39683e-66 5.11318e-67 1.83746e-67 6.48383e-68 2.24717e-68 7.65127e-69 2.55992e-69 8.41814e-70 2.72144e-70 8.65111e-71 2.70477e-71 8.31889e-72 2.51742e-72 7.49411e-73 2.1842e-73 5.83972e-74 0 
0 7.72862e-103 4.75194e-102 2.81917e-101 1.6551e-100 9.62126e-100 5.53755e-99 3.15532e-98 1.77979e-97 9.93693e-97 5.49105e-96 3.00287e-95 1.62499e-94 8.70082e-94 4.60911e-93 2.41534e-92 1.25198e-91 6.41845e-91 3.25408e-90 1.63133e-89 8.08587e-89 3.96214e-88 1.91912e-87 9.18732e-87 4.34651e-86 2.0319e-85 9.3847e-85 4.28191e-84 1.92973e-83 8.58898e-83 3.77495e-82 1.63812e-81 7.01752e-81 2.9673e-80 1.23827e-79 5.09895e-79 2.07152e-78 8.30183e-78 3.28144e-77 1.27905e-76 4.91559e-76 1.86231e-75 6.95406e-75 2.55895e-74 9.2777e-74 3.31356e-73 1.16558e-72 4.03739e-72 1.37684e-71 4.6217e-71 1.52675e-70 4.96239e-70 1.58663e-69 4.9892e-69 1.54262e-68 4.68877e-68 1.40066e-67 4.11128e-67 1.18546e-66 3.35707e-66 9.33437e-66 2.54773e-65 6.82421e-65 1.79337e-64 4.62266e-64 1.16843e-63 2.89521e-63 7.03087e-63 1.67289e-62 3.89886e-62 8.89805e-62 1.988e-61 4.34692e-61 9.29966e-61 1.94603e-60 3.98209e-60 7.96581e-60 1.55736e-59 2.97489e-59 5.5509e-59 1.01149e-58 1.79951e-58 3.12498e-58 5.29598e-58 8.7572e-58 1.41263e-57 2.22262e-57 3.41051e-57 5.10327e-57 7.44596e-57 1.05931e-56 1.46946e-56 1.98772e-56 2.62218e-56 3.37413e-56 4.23608e-56 5.19068e-56 6.21073e-56 7.26061e-56 8.29927e-56 9.28417e-56 1.0176e-55 1.09432e-55 1.15655e-55 1.20362e-55 1.23625e-55 1.25636e-55 1.26679e-55 1.27087e-55 1.27199e-55 1.27319e-55 1.27685e-55 1.28452e-55 1.2969e-55 1.31387e-55 1.33466e-55 1.3581e-55 1.38284e-55 1.40754e-55 1.4311e-55 1.45271e-55 1.47196e-55 1.48879e-55 1.50348e-55 1.51652e-55 1.52854e-55 1.54021e-55 1.55215e-55 1.56486e-55 1.57862e-55 1.59347e-55 1.60913e-55 1.625e-55 1.64018e-55 1.65354e-55 1.66381e-55 1.66974e-55 1.67028e-55 1.66469e-55 1.65272e-55 1.63462e-55 1.61115e-55 1.58349e-55 1.55308e-55 1.52147e-55 1.4901e-55 1.46013e-55 1.4323e-55 1.40689e-55 1.38363e-55 1.36187e-55 1.3406e-55 1.31871e-55 1.29515e-55 1.26916e-55 1.24048e-55 1.20944e-55 1.17704e-55 1.14486e-55 1.11491e-55 1.08939e-55 1.07038e-55 1.05952e-55 1.05779e-55 1.0653e-55 1.08127e-55 1.10408e-55 1.1315e-55 1.16093e-55 1.18975e-55 1.21562e-55 1.23676e-55 1.2521e-55 1.26138e-55 1.26509e-55 1.26435e-55 1.26069e-55 1.25586e-55 1.25154e-55 1.24913e-55 1.24961e-55 1.25338e-55 1.26024e-55 1.26937e-55 1.2794e-55 1.28853e-55 1.29467e-55 1.29563e-55 1.2893e-55 1.27389e-55 1.24802e-55 1.21093e-55 1.1625e-55 1.10324e-55 1.03428e-55 9.57251e-56 8.74119e-56 7.87085e-56 6.98425e-56 6.10365e-56 5.24975e-56 4.44072e-56 3.69156e-56 3.01354e-56 2.41393e-56 1.89598e-56 1.45917e-56 1.09967e-56 8.11063e-57 5.85149e-57 4.12773e-57 2.84601e-57 1.91743e-57 1.26202e-57 8.11356e-58 5.09465e-58 3.12432e-58 1.87128e-58 1.09466e-58 6.25481e-59 3.49134e-59 1.90402e-59 1.01467e-59 5.28483e-60 2.69076e-60 1.33952e-60 6.52162e-61 3.10592e-61 1.44732e-61 6.60055e-62 2.94681e-62 1.28822e-62 5.51577e-63 2.31374e-63 9.51103e-64 3.8323e-64 1.51399e-64 5.86582e-65 2.2294e-65 8.31407e-66 3.04307e-66 1.09343e-66 3.85798e-67 1.33697e-67 4.55173e-68 1.52275e-68 5.00703e-69 1.61855e-69 5.14476e-70 1.60839e-70 4.94649e-71 1.49678e-71 4.45551e-72 1.29852e-72 3.47158e-73 0 
0 4.53463e-102 2.78781e-101 1.65373e-100 9.70774e-100 5.64261e-99 3.24728e-98 1.85012e-97 1.04347e-96 5.82536e-96 3.21873e-95 1.76005e-94 9.52364e-94 5.09887e-93 2.70082e-92 1.41521e-91 7.33513e-91 3.76018e-90 1.90623e-89 9.5557e-89 4.73608e-88 2.32058e-87 1.12394e-86 5.38034e-86 2.54531e-85 1.18983e-84 5.49522e-84 2.50719e-83 1.12988e-82 5.02882e-82 2.21017e-81 9.59076e-81 4.10852e-80 1.73724e-79 7.24957e-79 2.98523e-78 1.2128e-77 4.86047e-77 1.92121e-76 7.48874e-76 2.87811e-75 1.09043e-74 4.07192e-74 1.49844e-73 5.433e-73 1.94052e-72 6.82638e-72 2.3647e-71 8.06471e-71 2.70732e-70 8.94419e-70 2.90737e-69 9.29665e-69 2.92364e-68 9.04054e-68 2.74816e-67 8.21041e-67 2.41024e-66 6.95065e-66 1.96858e-65 5.4744e-65 1.49439e-64 4.00336e-64 1.05222e-63 2.71265e-63 6.85756e-63 1.69948e-62 4.12777e-62 9.82304e-62 2.28974e-61 5.22656e-61 1.16791e-60 2.55416e-60 5.46521e-60 1.14384e-59 2.34097e-59 4.68367e-59 9.15829e-59 1.74971e-58 3.26532e-58 5.95095e-58 1.05887e-57 1.83905e-57 3.11709e-57 5.15492e-57 8.31635e-57 1.30862e-56 2.00821e-56 3.00521e-56 4.38509e-56 6.23888e-56 8.65494e-56 1.17079e-55 1.54454e-55 1.98749e-55 2.49524e-55 3.05755e-55 3.65838e-55 4.27676e-55 4.88848e-55 5.4685e-55 5.99368e-55 6.44541e-55 6.8118e-55 7.08892e-55 7.28095e-55 7.39928e-55 7.46062e-55 7.48456e-55 7.49101e-55 7.49785e-55 7.51912e-55 7.56399e-55 7.63647e-55 7.73588e-55 7.85777e-55 7.99524e-55 8.14032e-55 8.28521e-55 8.42337e-55 8.55015e-55 8.66308e-55 8.76186e-55 8.84806e-55 8.92456e-55 8.99509e-55 9.06356e-55 9.13363e-55 9.20817e-55 9.28889e-55 9.37595e-55 9.46774e-55 9.56077e-55 9.64975e-55 9.72804e-55 9.78822e-55 9.82297e-55 9.82608e-55 9.7933e-55 9.72309e-55 9.61694e-55 9.47929e-55 9.31707e-55 9.13878e-55 8.95345e-55 8.76954e-55 8.59384e-55 8.43074e-55 8.28175e-55 8.14546e-55 8.01789e-55 7.8932e-55 7.76482e-55 7.62659e-55 7.47409e-55 7.30572e-55 7.12348e-55 6.9332e-55 6.74419e-55 6.56829e-55 6.4184e-55 6.30671e-55 6.24292e-55 6.23273e-55 6.27682e-55 6.37059e-55 6.50457e-55 6.66561e-55 6.83847e-55 7.00775e-55 7.15974e-55 7.28393e-55 7.3741e-55 7.42865e-55 7.45049e-55 7.44616e-55 7.42473e-55 7.39638e-55 7.37097e-55 7.3568e-55 7.35957e-55 7.38166e-55 7.42188e-55 7.47543e-55 7.5343e-55 7.58788e-55 7.62392e-55 7.62954e-55 7.59242e-55 7.5019e-55 7.35001e-55 7.13218e-55 6.84764e-55 6.49945e-55 6.09417e-55 5.64127e-55 5.15236e-55 4.64032e-55 4.11852e-55 3.60006e-55 3.09711e-55 2.6204e-55 2.1788e-55 1.77898e-55 1.42528e-55 1.11966e-55 8.61831e-56 6.49584e-56 4.79154e-56 3.4572e-56 2.43893e-56 1.68168e-56 1.13302e-56 7.45741e-57 4.79434e-57 3.01037e-57 1.84605e-57 1.10561e-57 6.46712e-58 3.69497e-58 2.06228e-58 1.12456e-58 5.99226e-59 3.12065e-59 1.58868e-59 7.90781e-60 3.84949e-60 1.83308e-60 8.54068e-61 3.89448e-61 1.73844e-61 7.59864e-62 3.25305e-62 1.36439e-62 5.6078e-63 2.25925e-63 8.92421e-64 3.45715e-64 1.31378e-64 4.89884e-65 1.79283e-65 6.44122e-66 2.27241e-66 7.87406e-67 2.68046e-67 8.96641e-68 2.948e-68 9.52871e-69 3.02856e-69 9.4673e-70 2.91137e-70 8.80905e-71 2.62204e-71 7.64122e-72 2.04278e-72 0 
0 2.63438e-101 1.6194e-100 9.60519e-100 5.63783e-99 3.27663e-98 1.88548e-97 1.07413e-96 6.05755e-96 3.38141e-95 1.86819e-94 1.02146e-93 5.52665e-93 2.95867e-92 1.56705e-91 8.21064e-91 4.25532e-90 2.18123e-89 1.10571e-88 5.54244e-88 2.74683e-87 1.34582e-86 6.51795e-86 3.12001e-85 1.47594e-84 6.89915e-84 3.18626e-83 1.45368e-82 6.55095e-82 2.9156e-81 1.28139e-80 5.56034e-80 2.38194e-79 1.00717e-78 4.20297e-78 1.73071e-77 7.03139e-77 2.81798e-76 1.11389e-75 4.342e-75 1.66879e-74 6.32276e-74 2.36118e-73 8.68942e-73 3.15075e-72 1.12543e-71 3.95931e-71 1.37163e-70 4.67823e-70 1.57061e-69 5.1893e-69 1.68698e-68 5.39483e-68 1.69676e-67 5.24736e-67 1.59529e-66 4.76666e-66 1.39948e-65 4.03635e-65 1.14334e-64 3.17995e-64 8.68186e-64 2.32616e-63 6.11491e-63 1.57669e-62 3.98652e-62 9.88129e-62 2.40042e-61 5.71337e-61 1.33202e-60 3.04099e-60 6.79654e-60 1.48663e-59 3.18155e-59 6.65998e-59 1.36327e-58 2.72802e-58 5.3352e-58 1.01947e-57 1.90285e-57 3.46844e-57 6.17243e-57 1.07219e-56 1.81755e-56 3.00617e-56 4.85038e-56 7.63318e-56 1.1715e-55 1.75326e-55 2.55849e-55 3.64032e-55 5.05034e-55 6.83208e-55 9.01335e-55 1.15985e-54 1.45617e-54 1.78433e-54 2.13495e-54 2.49578e-54 2.85271e-54 3.19111e-54 3.49749e-54 3.76099e-54 3.97469e-54 4.13629e-54 4.24825e-54 4.31721e-54 4.35292e-54 4.3668e-54 4.37047e-54 4.37433e-54 4.38657e-54 4.41254e-54 4.45457e-54 4.51227e-54 4.58305e-54 4.6629e-54 4.74718e-54 4.83137e-54 4.91165e-54 4.98532e-54 5.05095e-54 5.10837e-54 5.15847e-54 5.20294e-54 5.24394e-54 5.28374e-54 5.32446e-54 5.36777e-54 5.41466e-54 5.46522e-54 5.51853e-54 5.57254e-54 5.62421e-54 5.66967e-54 5.7046e-54 5.72477e-54 5.72656e-54 5.7075e-54 5.6667e-54 5.60503e-54 5.52507e-54 5.43083e-54 5.32727e-54 5.21964e-54 5.11283e-54 5.0108e-54 4.91609e-54 4.82959e-54 4.75047e-54 4.67639e-54 4.60399e-54 4.52941e-54 4.44907e-54 4.36042e-54 4.26251e-54 4.15652e-54 4.04583e-54 3.93587e-54 3.83352e-54 3.7463e-54 3.6813e-54 3.64417e-54 3.63822e-54 3.66386e-54 3.71841e-54 3.79637e-54 3.89007e-54 3.99066e-54 4.08917e-54 4.17762e-54 4.2499e-54 4.30239e-54 4.33415e-54 4.34688e-54 4.34438e-54 4.33193e-54 4.31544e-54 4.30065e-54 4.29239e-54 4.29397e-54 4.3068e-54 4.33016e-54 4.36128e-54 4.3955e-54 4.42665e-54 4.44761e-54 4.45089e-54 4.42931e-54 4.37667e-54 4.28832e-54 4.16158e-54 3.996e-54 3.79332e-54 3.55735e-54 3.29358e-54 3.00873e-54 2.71031e-54 2.40607e-54 2.10367e-54 1.81019e-54 1.53191e-54 1.27403e-54 1.04046e-54 8.3375e-55 6.55081e-55 5.04311e-55 3.80162e-55 2.80451e-55 2.02369e-55 1.42773e-55 9.8449e-56 6.63309e-56 4.36584e-56 2.80674e-56 1.7623e-56 1.08064e-56 6.47161e-57 3.78521e-57 2.16248e-57 1.20683e-57 6.58014e-58 3.50582e-58 1.82554e-58 9.29232e-59 4.62471e-59 2.25098e-59 1.07173e-59 4.99268e-60 2.27628e-60 1.01595e-60 4.43999e-61 1.90052e-61 7.96995e-62 3.27525e-62 1.31933e-62 5.2107e-63 2.01829e-63 7.66882e-64 2.85918e-64 1.04624e-64 3.7584e-65 1.32577e-65 4.59335e-66 1.56347e-66 5.22941e-67 1.71916e-67 5.55623e-68 1.7658e-68 5.5194e-69 1.69718e-69 5.13481e-70 1.52828e-70 4.45345e-71 1.1905e-71 0 
0 1.51523e-100 9.31339e-100 5.52349e-99 3.24171e-98 1.88384e-97 1.08392e-96 6.17432e-96 3.48166e-95 1.94333e-94 1.07357e-93 5.86942e-93 3.17541e-92 1.69981e-91 9.0023e-91 4.71645e-90 2.44422e-89 1.2528e-88 6.35029e-88 3.18293e-87 1.57738e-86 7.728e-86 3.74259e-85 1.79142e-84 8.47411e-84 3.96101e-83 1.82927e-82 8.34555e-82 3.7608e-81 1.67377e-80 7.35604e-80 3.19199e-79 1.36738e-78 5.78181e-78 2.41279e-77 9.93559e-77 4.03662e-76 1.6178e-75 6.39502e-75 2.49289e-74 9.58146e-74 3.63041e-73 1.35581e-72 4.98983e-72 1.8094e-71 6.46351e-71 2.27406e-70 7.87867e-70 2.68742e-69 9.02323e-69 2.98156e-68 9.69368e-68 3.10031e-67 9.75208e-67 3.01626e-66 9.1711e-66 2.74066e-65 8.04758e-65 2.3214e-64 6.57661e-64 1.82942e-63 4.99544e-63 1.33866e-62 3.5196e-62 9.07664e-62 2.29535e-61 5.69044e-61 1.3826e-60 3.29142e-60 7.67505e-60 1.75254e-59 3.91763e-59 8.5708e-59 1.83459e-58 3.84109e-58 7.86404e-58 1.57395e-57 3.07874e-57 5.88401e-57 1.09845e-56 2.00254e-56 3.56429e-56 6.19234e-56 1.04986e-55 1.73668e-55 2.80244e-55 4.41079e-55 6.77018e-55 1.01331e-54 1.47882e-54 2.10427e-54 2.91949e-54 3.94964e-54 5.21081e-54 6.70548e-54 8.41871e-54 1.03159e-53 1.23428e-53 1.44287e-53 1.64918e-53 1.84477e-53 2.02183e-53 2.17409e-53 2.29755e-53 2.3909e-53 2.45555e-53 2.49536e-53 2.51594e-53 2.5239e-53 2.52595e-53 2.5281e-53 2.53507e-53 2.54995e-53 2.57409e-53 2.60726e-53 2.64797e-53 2.69392e-53 2.74242e-53 2.79087e-53 2.83708e-53 2.87949e-53 2.91727e-53 2.95032e-53 2.97917e-53 3.00477e-53 3.02838e-53 3.05129e-53 3.07473e-53 3.09965e-53 3.12663e-53 3.15572e-53 3.18639e-53 3.21746e-53 3.24717e-53 3.27332e-53 3.2934e-53 3.305e-53 3.30602e-53 3.29504e-53 3.27156e-53 3.23607e-53 3.19006e-53 3.13584e-53 3.07625e-53 3.01433e-53 2.95288e-53 2.89419e-53 2.83973e-53 2.78998e-53 2.74448e-53 2.70188e-53 2.66023e-53 2.61731e-53 2.57107e-53 2.52002e-53 2.46363e-53 2.40257e-53 2.33879e-53 2.27541e-53 2.21643e-53 2.16615e-53 2.12868e-53 2.10727e-53 2.10383e-53 2.1186e-53 2.15004e-53 2.19497e-53 2.24898e-53 2.30696e-53 2.36374e-53 2.41473e-53 2.45641e-53 2.48667e-53 2.50499e-53 2.51233e-53 2.5109e-53 2.50373e-53 2.49423e-53 2.4857e-53 2.48093e-53 2.48183e-53 2.4892e-53 2.50265e-53 2.52057e-53 2.54027e-53 2.55822e-53 2.57029e-53 2.57219e-53 2.55976e-53 2.52944e-53 2.47854e-53 2.4055e-53 2.31005e-53 2.19319e-53 2.05709e-53 1.90491e-53 1.74052e-53 1.56823e-53 1.39252e-53 1.21778e-53 1.04814e-53 8.8722e-54 7.38029e-54 6.0285e-54 4.83177e-54 3.79701e-54 2.92357e-54 2.20415e-54 1.62621e-54 1.17356e-54 8.28008e-55 5.70975e-55 3.84708e-55 2.53212e-55 1.62784e-55 1.02205e-55 6.26688e-56 3.75277e-56 2.19479e-56 1.25376e-56 6.9962e-57 3.81418e-57 2.03189e-57 1.0579e-57 5.38414e-58 2.67925e-58 1.30387e-58 6.20701e-59 2.8911e-59 1.31791e-59 5.88115e-60 2.56983e-60 1.09983e-60 4.61146e-61 1.89478e-61 7.63135e-62 3.01354e-62 1.16708e-62 4.43384e-63 1.65284e-63 6.04725e-64 2.17207e-64 7.66092e-65 2.65391e-65 9.03221e-66 3.02068e-66 9.92934e-67 3.20876e-67 1.01965e-67 3.18686e-68 9.79846e-69 2.96427e-69 8.82185e-70 2.57052e-70 6.87115e-71 0 
0 8.62791e-100 5.30261e-99 3.14449e-98 1.84529e-97 1.07224e-96 6.16879e-96 3.51361e-95 1.98112e-94 1.10569e-93 6.10771e-93 3.33893e-92 1.80625e-91 9.66817e-91 5.11995e-90 2.68224e-89 1.38993e-88 7.12375e-88 3.61073e-87 1.8097e-86 8.96791e-86 4.39342e-85 2.12759e-84 1.01835e-83 4.81703e-83 2.25153e-82 1.03977e-81 4.74359e-81 2.13759e-80 9.51341e-80 4.181e-79 1.81425e-78 7.77188e-78 3.28627e-77 1.3714e-76 5.64738e-76 2.29446e-75 9.19601e-75 3.63524e-74 1.41713e-73 5.44703e-73 2.06398e-72 7.70859e-72 2.83719e-71 1.02889e-70 3.67564e-70 1.29331e-69 4.48116e-69 1.52867e-68 5.13314e-68 1.69633e-67 5.51574e-67 1.76429e-66 5.5503e-66 1.7169e-65 5.22103e-65 1.56045e-64 4.58274e-64 1.32214e-63 3.74625e-63 1.04227e-62 2.84651e-62 7.62932e-62 2.00625e-61 5.17482e-61 1.30888e-60 3.24548e-60 7.88706e-60 1.87796e-59 4.37996e-59 1.00033e-58 2.23659e-58 4.89408e-58 1.04779e-57 2.19421e-57 4.4932e-57 8.99469e-57 1.75975e-56 3.36382e-56 6.28086e-56 1.14524e-55 2.03875e-55 3.54254e-55 6.00703e-55 9.93822e-55 1.60393e-54 2.52474e-54 3.87569e-54 5.80143e-54 8.46728e-54 1.20493e-53 1.67183e-53 2.26185e-53 2.98419e-53 3.84025e-53 4.82148e-53 5.908e-53 7.06878e-53 8.26321e-53 9.44451e-53 1.05643e-52 1.15778e-52 1.24493e-52 1.31558e-52 1.36899e-52 1.40597e-52 1.42872e-52 1.44046e-52 1.44498e-52 1.44611e-52 1.44729e-52 1.45122e-52 1.45966e-52 1.47339e-52 1.49227e-52 1.51547e-52 1.54165e-52 1.56929e-52 1.59691e-52 1.62325e-52 1.64743e-52 1.66897e-52 1.68782e-52 1.70427e-52 1.71887e-52 1.73233e-52 1.7454e-52 1.75876e-52 1.77297e-52 1.78834e-52 1.80492e-52 1.82239e-52 1.84009e-52 1.85702e-52 1.87191e-52 1.88335e-52 1.88996e-52 1.89053e-52 1.88427e-52 1.87089e-52 1.85066e-52 1.82443e-52 1.79353e-52 1.75957e-52 1.72429e-52 1.68928e-52 1.65584e-52 1.62481e-52 1.59648e-52 1.57056e-52 1.5463e-52 1.52257e-52 1.49811e-52 1.47175e-52 1.44264e-52 1.41046e-52 1.37562e-52 1.33922e-52 1.30304e-52 1.26937e-52 1.24066e-52 1.21926e-52 1.20704e-52 1.20507e-52 1.2135e-52 1.23144e-52 1.25709e-52 1.28793e-52 1.32103e-52 1.35345e-52 1.38257e-52 1.40636e-52 1.42365e-52 1.43411e-52 1.43831e-52 1.4375e-52 1.4334e-52 1.42798e-52 1.42311e-52 1.42038e-52 1.42088e-52 1.42508e-52 1.43275e-52 1.44297e-52 1.45421e-52 1.46445e-52 1.47134e-52 1.47243e-52 1.46535e-52 1.44805e-52 1.419e-52 1.37731e-52 1.32281e-52 1.25608e-52 1.17833e-52 1.09136e-52 9.97388e-53 8.98858e-53 7.98333e-53 6.98327e-53 6.01193e-53 5.09012e-53 4.23516e-53 3.46019e-53 2.77385e-53 2.1802e-53 1.67895e-53 1.26597e-53 9.34132e-54 6.74175e-54 4.75698e-54 3.28044e-54 2.21031e-54 1.45481e-54 9.3524e-55 5.87174e-55 3.60015e-55 2.1557e-55 1.26064e-55 7.20059e-56 4.0176e-56 2.19003e-56 1.16652e-56 6.07258e-57 3.09017e-57 1.53749e-57 7.48106e-58 3.56074e-58 1.65824e-58 7.55784e-59 3.3721e-59 1.47322e-59 6.30399e-60 2.64275e-60 1.08569e-60 4.37194e-61 1.72615e-61 6.68392e-62 2.53889e-62 9.46297e-63 3.46171e-63 1.2432e-63 4.38418e-64 1.51857e-64 5.16757e-65 1.72799e-65 5.67942e-66 1.83515e-66 5.83094e-67 1.82223e-67 5.60215e-68 1.69462e-68 5.04285e-69 1.46927e-69 3.92718e-70 0 
0 4.86316e-99 2.98854e-98 1.77204e-97 1.03979e-96 6.04129e-96 3.47534e-95 1.97929e-94 1.11591e-93 6.2275e-93 3.43972e-92 1.88026e-91 1.01708e-90 5.44365e-90 2.88258e-89 1.51003e-88 7.82445e-88 4.00999e-87 2.03239e-86 1.01858e-85 5.04731e-85 2.47259e-84 1.19735e-83 5.73083e-83 2.71072e-82 1.26699e-81 5.85092e-81 2.66923e-80 1.20281e-79 5.35312e-79 2.35261e-78 1.02087e-77 4.37322e-77 1.8492e-76 7.71711e-76 3.17794e-75 1.2912e-74 5.1752e-74 2.04587e-73 7.97583e-73 3.06583e-72 1.16177e-71 4.33927e-71 1.5972e-70 5.7926e-70 2.06954e-69 7.28252e-69 2.52355e-68 8.60951e-68 2.89131e-67 9.55589e-67 3.10754e-66 9.94121e-66 3.12783e-65 9.67679e-65 2.94311e-64 8.79763e-64 2.5841e-63 7.45643e-63 2.11312e-62 5.88007e-62 1.60618e-61 4.30574e-61 1.13248e-60 2.92162e-60 7.39118e-60 1.83308e-59 4.45559e-59 1.06112e-58 2.47538e-58 5.65467e-58 1.26457e-57 2.7677e-57 5.92675e-57 1.2414e-56 2.5426e-56 5.09096e-56 9.96214e-56 1.90468e-55 3.55706e-55 6.48711e-55 1.15503e-54 2.00734e-54 3.40437e-54 5.63316e-54 9.09262e-54 1.43146e-53 2.19766e-53 3.28997e-53 4.8022e-53 6.83426e-53 9.48309e-53 1.28305e-52 1.69285e-52 2.17853e-52 2.73519e-52 3.35156e-52 4.01001e-52 4.68749e-52 5.35746e-52 5.99245e-52 6.56713e-52 7.06118e-52 7.46162e-52 7.76424e-52 7.97367e-52 8.10241e-52 8.16875e-52 8.19411e-52 8.20023e-52 8.20658e-52 8.22847e-52 8.27588e-52 8.35319e-52 8.45967e-52 8.59052e-52 8.73829e-52 8.89434e-52 9.05028e-52 9.19901e-52 9.33552e-52 9.45716e-52 9.56359e-52 9.65649e-52 9.73896e-52 9.81497e-52 9.88875e-52 9.9642e-52 1.00444e-51 1.01312e-51 1.02247e-51 1.03233e-51 1.04232e-51 1.05187e-51 1.06027e-51 1.06673e-51 1.07045e-51 1.07078e-51 1.06724e-51 1.05968e-51 1.04826e-51 1.03346e-51 1.01602e-51 9.96851e-52 9.76935e-52 9.57179e-52 9.38313e-52 9.20808e-52 9.04824e-52 8.90205e-52 8.76517e-52 8.6313e-52 8.49326e-52 8.34442e-52 8.17998e-52 7.99821e-52 7.80128e-52 7.59551e-52 7.391e-52 7.2006e-52 7.03828e-52 6.91727e-52 6.84809e-52 6.83695e-52 6.88459e-52 6.98605e-52 7.13108e-52 7.30543e-52 7.49262e-52 7.67597e-52 7.84062e-52 7.9752e-52 8.07294e-52 8.13214e-52 8.15591e-52 8.15132e-52 8.12819e-52 8.0975e-52 8.06994e-52 8.05448e-52 8.05729e-52 8.08098e-52 8.12426e-52 8.18198e-52 8.24549e-52 8.30338e-52 8.34237e-52 8.34856e-52 8.30858e-52 8.21087e-52 8.0467e-52 7.81102e-52 7.50286e-52 7.12536e-52 6.68546e-52 6.19326e-52 5.66118e-52 5.10309e-52 4.53347e-52 3.96655e-52 3.41566e-52 2.89265e-52 2.40735e-52 1.96727e-52 1.57738e-52 1.24002e-52 9.55078e-53 7.20254e-53 5.31519e-53 3.83638e-53 2.70712e-53 1.86692e-53 1.25792e-53 8.27949e-54 5.32242e-54 3.34144e-54 2.04861e-54 1.22657e-54 7.17223e-55 4.09621e-55 2.28522e-55 1.24553e-55 6.63336e-56 3.45262e-56 1.75666e-56 8.73869e-57 4.25132e-57 2.02314e-57 9.42012e-58 4.29268e-58 1.91493e-58 8.36455e-59 3.57858e-59 1.49994e-59 6.16091e-60 2.48049e-60 9.79191e-61 3.79093e-61 1.43975e-61 5.36535e-62 1.96242e-62 7.04655e-63 2.48461e-63 8.60481e-64 2.92773e-64 9.78876e-65 3.21687e-65 1.03931e-65 3.30188e-66 1.03175e-66 3.17162e-67 9.593e-68 2.85441e-68 8.31579e-69 2.22254e-69 0 
0 2.71317e-98 1.66715e-97 9.88434e-97 5.79931e-96 3.36914e-95 1.93797e-94 1.10362e-93 6.22159e-93 3.47177e-92 1.91746e-91 1.04806e-90 5.66881e-90 3.03388e-89 1.60643e-88 8.41466e-88 4.35994e-87 2.23433e-86 1.13237e-85 5.67486e-85 2.81192e-84 1.37746e-83 6.67011e-83 3.19239e-82 1.50998e-81 7.05749e-81 3.25908e-80 1.4868e-79 6.69981e-79 2.98174e-78 1.31043e-77 5.68639e-77 2.43599e-76 1.03007e-75 4.29881e-75 1.77033e-74 7.19309e-74 2.88315e-73 1.13983e-72 4.44386e-72 1.70828e-71 6.47379e-71 2.41817e-70 8.90152e-70 3.2286e-69 1.1536e-68 4.05979e-68 1.40695e-67 4.80058e-67 1.61235e-66 5.32955e-66 1.73338e-65 5.54592e-65 1.74518e-64 5.39999e-64 1.64261e-63 4.91094e-63 1.44272e-62 4.16369e-62 1.18019e-61 3.28465e-61 8.97394e-61 2.40614e-60 6.32981e-60 1.63333e-59 4.13291e-59 1.02522e-58 2.4925e-58 5.93732e-58 1.38536e-57 3.16538e-57 7.08039e-57 1.55e-56 3.31992e-56 6.95536e-56 1.4249e-55 2.85364e-55 5.5853e-55 1.06809e-54 1.9951e-54 3.63924e-54 6.48093e-54 1.12653e-53 1.91088e-53 3.16241e-53 5.10528e-53 8.03838e-53 1.23426e-52 1.84792e-52 2.69758e-52 3.83937e-52 5.3278e-52 7.20879e-52 9.51164e-52 1.22408e-51 1.53687e-51 1.8832e-51 2.25314e-51 2.63374e-51 3.01007e-51 3.36672e-51 3.68943e-51 3.96681e-51 4.19159e-51 4.36139e-51 4.47885e-51 4.55098e-51 4.58807e-51 4.60214e-51 4.60539e-51 4.60876e-51 4.62082e-51 4.64717e-51 4.69028e-51 4.74973e-51 4.82284e-51 4.90543e-51 4.99267e-51 5.07985e-51 5.16301e-51 5.23935e-51 5.30737e-51 5.36689e-51 5.41884e-51 5.46496e-51 5.50748e-51 5.54874e-51 5.59092e-51 5.63576e-51 5.68427e-51 5.73655e-51 5.79164e-51 5.84746e-51 5.90083e-51 5.94778e-51 5.98385e-51 6.00465e-51 6.00645e-51 5.98668e-51 5.94442e-51 5.88057e-51 5.79781e-51 5.7003e-51 5.59317e-51 5.48186e-51 5.37145e-51 5.26603e-51 5.16823e-51 5.07894e-51 4.99728e-51 4.92082e-51 4.84602e-51 4.76887e-51 4.68565e-51 4.59367e-51 4.49196e-51 4.38174e-51 4.26655e-51 4.15205e-51 4.04543e-51 3.95453e-51 3.88675e-51 3.848e-51 3.84175e-51 3.86842e-51 3.92522e-51 4.00644e-51 4.10408e-51 4.20891e-51 4.31159e-51 4.40381e-51 4.47918e-51 4.53393e-51 4.56709e-51 4.58041e-51 4.57784e-51 4.56489e-51 4.5477e-51 4.53225e-51 4.52357e-51 4.52512e-51 4.53835e-51 4.56256e-51 4.59485e-51 4.6304e-51 4.66281e-51 4.68466e-51 4.68815e-51 4.66581e-51 4.61115e-51 4.51927e-51 4.38733e-51 4.21476e-51 4.0033e-51 3.75681e-51 3.48091e-51 3.18255e-51 2.86949e-51 2.54982e-51 2.23152e-51 1.92209e-51 1.62818e-51 1.35534e-51 1.10783e-51 8.88452e-52 6.98568e-52 5.38133e-52 4.05879e-52 2.99557e-52 2.16232e-52 1.52593e-52 1.05237e-52 7.09092e-53 4.6671e-53 3.00013e-53 1.88339e-53 1.15461e-53 6.91244e-54 4.04155e-54 2.30794e-54 1.2874e-54 7.01581e-55 3.73587e-55 1.94418e-55 9.89015e-56 4.91909e-56 2.39268e-56 1.13843e-56 5.29975e-57 2.4146e-57 1.07693e-57 4.70319e-58 2.01177e-58 8.4306e-59 3.46216e-59 1.39367e-59 5.50058e-60 2.12916e-60 8.08484e-61 3.01237e-61 1.10161e-61 3.95495e-62 1.39429e-62 4.82801e-63 1.64245e-63 5.49068e-64 1.80414e-64 5.82807e-65 1.85133e-65 5.78424e-66 1.77787e-66 5.37682e-67 1.59971e-67 4.66001e-68 1.24537e-68 0 