# vtk DataFile Version 3.0
Gray-Scott Simulation Output
ASCII
DATASET STRUCTURED_POINTS
DIMENSIONS 256 256 1
SPACING 1.0 1.0 1.0
ORIGIN 0 0 0
POINT_DATA 65536
SCALARS u double
LOOKUP_TABLE default
0 0 0 0 0 0 0 0 0 0 0 0 0 0 0 0 0 0 0 0 0 0 0 0 0 0 0 0 0 0 0 0 0 0 0 0 0 0 0 0 0 0 0 0 0 0 0 0 0 0 0 0 0 0 0 0 0 0 0 0 0 0 0 0 0 0 0 0 0 0 0 0 0 0 0 0 0 0 0 0 0 0 0 0 0 0 0 0 0 0 0 0 0 0 0 0 0 0 0 0 0 0 0 0 0 0 0 0 0 0 0 0 0 0 0 0 0 0 0 0 0 0 0 0 0 0 0 0 0 0 0 0 0 0 0 0 0 0 0 0 0 0 0 0 0 0 0 0 0 0 0 0 0 0 0 0 0 0 0 0 0 0 0 0 0 0 0 0 0 0 0 0 0 0 0 0 0 0 0 0 0 0 0 0 0 0 0 0 0 0 0 0 0 0 0 0 0 0 0 0 0 0 0 0 0 0 0 0 0 0 0 0 0 0 0 0 0 0 0 0 0 0 0 0 0 0 0 0 0 0 0 0 0 0 0 0 0 0 0 0 0 0 0 0 0 0 0 0 0 0 0 0 0 0 0 0 
0 1.03336e-96 5.53051e-96 2.83257e-95 1.43525e-94 7.20256e-94 3.57967e-93 1.76181e-92 8.58621e-92 4.14315e-91 1.97929e-90 9.36046e-90 4.38186e-89 2.03026e-88 9.30969e-88 4.22445e-87 1.89676e-86 8.42602e-86 3.703e-85 1.60977e-84 6.92164e-84 2.94335e-83 1.2377e-82 5.14618e-82 2.11544e-81 8.59633e-81 3.45282e-80 1.37067e-79 5.37695e-79 2.08417e-78 7.98122e-78 3.01919e-77 1.12809e-76 4.16262e-76 1.51672e-75 5.45637e-75 1.93776e-74 6.79252e-74 2.34984e-73 8.02154e-73 2.70163e-72 8.97585e-72 2.94132e-71 9.50514e-71 3.02869e-70 9.51393e-70 2.94581e-69 8.98908e-69 2.70282e-68 8.00641e-68 2.33614e-67 6.7131e-67 1.89947e-66 5.29108e-66 1.45071e-65 3.91432e-65 1.03917e-64 2.71389e-64 6.97079e-64 1.76063e-63 4.37186e-63 1.06705e-62 2.55937e-62 6.03145e-62 1.39623e-61 3.17431e-61 7.08604e-61 1.55284e-60 3.33986e-60 7.04873e-60 1.45943e-59 2.96384e-59 5.90243e-59 1.15245e-58 2.20565e-58 4.13703e-58 7.6031e-58 1.36886e-57 2.41388e-57 4.1685e-57 7.04822e-57 1.16666e-56 1.89023e-56 2.99728e-56 4.65088e-56 7.06142e-56 1.04897e-55 1.5245e-55 2.16752e-55 3.01492e-55 4.10274e-55 5.46245e-55 7.11646e-55 9.07347e-55 1.13242e-54 1.38387e-54 1.65648e-54 1.94305e-54 2.23476e-54 2.52187e-54 2.79463e-54 3.04415e-54 3.26335e-54 3.44761e-54 3.59519e-54 3.70727e-54 3.78766e-54 3.8422e-54 3.87797e-54 3.90239e-54 3.92241e-54 3.94386e-54 3.97094e-54 4.00612e-54 4.05012e-54 4.10219e-54 4.16051e-54 4.22265e-54 4.28599e-54 4.34817e-54 4.40732e-54 4.46225e-54 4.5125e-54 4.5583e-54 4.6004e-54 4.63989e-54 4.67801e-54 4.71591e-54 4.75444e-54 4.794e-54 4.83442e-54 4.87485e-54 4.9138e-54 4.94922e-54 4.97864e-54 4.99945e-54 5.00916e-54 5.00574e-54 4.98788e-54 4.95518e-54 4.90827e-54 4.84877e-54 4.77909e-54 4.70221e-54 4.62124e-54 4.53916e-54 4.45835e-54 4.38045e-54 4.3061e-54 4.23502e-54 4.16609e-54 4.09764e-54 4.02784e-54 3.95507e-54 3.87838e-54 3.79778e-54 3.71449e-54 3.63097e-54 3.55071e-54 3.47796e-54 3.41713e-54 3.37233e-54 3.34669e-54 3.34198e-54 3.35822e-54 3.39365e-54 3.44487e-54 3.50718e-54 3.57516e-54 3.64327e-54 3.70647e-54 3.76077e-54 3.80357e-54 3.8339e-54 3.85233e-54 3.86077e-54 3.86209e-54 3.85967e-54 3.85685e-54 3.85648e-54 3.8605e-54 3.86968e-54 3.88344e-54 3.89985e-54 3.91574e-54 3.92696e-54 3.92872e-54 3.91601e-54 3.88401e-54 3.82852e-54 3.74635e-54 3.63557e-54 3.49568e-54 3.32768e-54 3.13397e-54 2.91821e-54 2.68504e-54 2.43979e-54 2.18818e-54 1.93599e-54 1.68876e-54 1.45155e-54 1.22869e-54 1.02363e-54 8.38869e-55 6.75844e-55 5.3502e-55 4.15958e-55 3.17455e-55 2.37733e-55 1.74626e-55 1.25778e-55 8.88085e-56 6.14561e-56 4.16733e-56 2.76869e-56 1.80208e-56 1.14903e-56 7.17691e-57 4.39131e-57 2.63218e-57 1.54572e-57 8.89346e-58 5.01397e-58 2.77022e-58 1.50011e-58 7.96294e-59 4.14411e-59 2.1148e-59 1.05843e-59 5.19618e-60 2.50276e-60 1.1829e-60 5.48727e-61 2.49877e-61 1.11723e-61 4.90563e-62 2.11577e-62 8.96493e-63 3.73268e-63 1.52747e-63 6.1446e-64 2.43032e-64 9.45304e-65 3.61658e-65 1.36122e-65 5.04133e-66 1.8375e-66 6.59263e-67 2.32871e-67 8.09978e-68 2.77443e-68 9.35304e-69 3.07999e-69 9.14986e-70 0 
0 5.52532e-96 2.95702e-95 1.51444e-94 7.67333e-94 3.85061e-93 1.91369e-92 9.4184e-92 4.58996e-91 2.21477e-90 1.05803e-89 5.00359e-89 2.34227e-88 1.08524e-87 4.97634e-87 2.25811e-86 1.01389e-85 4.50403e-85 1.97942e-84 8.60508e-84 3.70005e-83 1.57344e-82 6.61661e-82 2.75117e-81 1.13096e-80 4.59599e-80 1.84612e-79 7.32889e-79 2.87518e-78 1.11452e-77 4.26825e-77 1.61473e-76 6.03368e-76 2.22659e-75 8.11364e-75 2.91911e-74 1.03678e-73 3.63462e-73 1.25751e-72 4.29315e-72 1.44608e-71 4.80499e-71 1.57475e-70 5.0896e-70 1.62195e-69 5.09568e-69 1.57801e-68 4.81597e-68 1.44828e-67 4.29083e-67 1.2522e-66 3.5989e-66 1.01848e-65 2.83755e-65 7.7814e-65 2.09998e-64 5.57609e-64 1.45652e-63 3.74191e-63 9.45297e-63 2.34777e-62 5.73143e-62 1.375e-61 3.24103e-61 7.50435e-61 1.70647e-60 3.81019e-60 8.35152e-60 1.79664e-59 3.79261e-59 7.85426e-59 1.5954e-58 3.17788e-58 6.2061e-58 1.18802e-57 2.22875e-57 4.09684e-57 7.37735e-57 1.30117e-56 2.24738e-56 3.80056e-56 6.29191e-56 1.01957e-55 1.61692e-55 2.50929e-55 3.81028e-55 5.66075e-55 8.22763e-55 1.16989e-54 1.62736e-54 2.21464e-54 2.94872e-54 3.84167e-54 4.89816e-54 6.11318e-54 7.47043e-54 8.94184e-54 1.04884e-53 1.20624e-53 1.36114e-53 1.50826e-53 1.64282e-53 1.76099e-53 1.86029e-53 1.93977e-53 2.00009e-53 2.04331e-53 2.07258e-53 2.09172e-53 2.10474e-53 2.11539e-53 2.12681e-53 2.14126e-53 2.16008e-53 2.18365e-53 2.21157e-53 2.24287e-53 2.27622e-53 2.31023e-53 2.34362e-53 2.37538e-53 2.40488e-53 2.43187e-53 2.45646e-53 2.47907e-53 2.50028e-53 2.52075e-53 2.5411e-53 2.56178e-53 2.58302e-53 2.60472e-53 2.62643e-53 2.64734e-53 2.66636e-53 2.68216e-53 2.69333e-53 2.69855e-53 2.69671e-53 2.68712e-53 2.66956e-53 2.64437e-53 2.61242e-53 2.575e-53 2.53372e-53 2.49025e-53 2.44618e-53 2.4028e-53 2.36099e-53 2.32109e-53 2.28294e-53 2.24595e-53 2.20921e-53 2.17174e-53 2.13266e-53 2.09146e-53 2.04815e-53 2.00339e-53 1.95849e-53 1.91534e-53 1.87622e-53 1.84351e-53 1.81941e-53 1.80562e-53 1.80308e-53 1.81182e-53 1.83088e-53 1.85842e-53 1.89194e-53 1.92851e-53 1.96514e-53 1.99914e-53 2.02834e-53 2.05136e-53 2.06766e-53 2.07756e-53 2.08209e-53 2.08279e-53 2.08148e-53 2.07995e-53 2.07974e-53 2.0819e-53 2.08683e-53 2.09423e-53 2.10306e-53 2.11162e-53 2.11767e-53 2.11864e-53 2.11183e-53 2.09465e-53 2.06484e-53 2.02068e-53 1.9611e-53 1.88586e-53 1.79546e-53 1.69121e-53 1.57504e-53 1.44946e-53 1.31734e-53 1.18173e-53 1.04576e-53 9.12417e-54 7.84424e-54 6.6413e-54 5.53409e-54 4.53607e-54 3.6552e-54 2.89405e-54 2.25034e-54 1.71766e-54 1.28644e-54 9.45033e-55 6.80723e-55 4.80663e-55 3.3263e-55 2.25557e-55 1.49854e-55 9.75335e-56 6.21857e-56 3.8839e-56 2.37624e-56 1.42421e-56 8.36259e-57 4.81095e-57 2.71198e-57 1.49816e-57 8.11156e-58 4.30515e-58 2.24015e-58 1.14299e-58 5.71952e-59 2.80742e-59 1.35196e-59 6.38876e-60 2.96309e-60 1.34907e-60 6.03074e-61 2.64754e-61 1.14165e-61 4.83653e-62 2.01339e-62 8.23763e-63 3.31317e-63 1.3102e-63 5.0953e-64 1.94905e-64 7.33466e-65 2.71597e-65 9.89777e-66 3.55058e-66 1.25398e-66 4.36096e-67 1.49355e-67 5.03429e-68 1.65759e-68 4.92374e-69 0 
0 2.82701e-95 1.51289e-94 7.74799e-94 3.92558e-93 1.96986e-92 9.78961e-92 4.81792e-91 2.34791e-90 1.1329e-89 5.41198e-89 2.55938e-88 1.19808e-87 5.55104e-87 2.5454e-86 1.15503e-85 5.18609e-85 2.30387e-84 1.01251e-83 4.40176e-83 1.89273e-82 8.04904e-82 3.38489e-81 1.40748e-80 5.78618e-80 2.35149e-79 9.44595e-79 3.75015e-78 1.4713e-77 5.70366e-77 2.18448e-76 8.26479e-76 3.08851e-75 1.13984e-74 4.15395e-74 1.49465e-73 5.30907e-73 1.8614e-72 6.44081e-72 2.19917e-71 7.40849e-71 2.462e-70 8.06989e-70 2.60856e-69 8.31416e-69 2.61247e-68 8.09147e-68 2.46987e-67 7.42878e-67 2.20132e-66 6.42531e-66 1.84703e-65 5.22806e-65 1.45686e-64 3.99594e-64 1.07862e-63 2.86467e-63 7.4844e-63 1.92322e-62 4.85962e-62 1.20722e-61 2.94779e-61 7.07358e-61 1.66772e-60 3.8624e-60 8.78511e-60 1.96201e-59 4.30156e-59 9.25606e-59 1.95438e-58 4.04838e-58 8.22525e-58 1.63878e-57 3.20113e-57 6.12924e-57 1.15012e-56 2.11458e-56 3.80863e-56 6.7188e-56 1.16069e-55 1.96323e-55 3.25074e-55 5.26849e-55 8.35654e-55 1.29703e-54 1.96975e-54 2.9267e-54 4.25424e-54 6.04965e-54 8.41588e-54 1.14536e-53 1.52507e-53 1.98695e-53 2.5334e-53 3.16181e-53 3.86373e-53 4.62461e-53 5.42423e-53 6.23793e-53 7.03854e-53 7.79877e-53 8.49388e-53 9.1041e-53 9.61662e-53 1.00266e-52 1.03375e-52 1.056e-52 1.07104e-52 1.08084e-52 1.08748e-52 1.09289e-52 1.0987e-52 1.10608e-52 1.11572e-52 1.12781e-52 1.14214e-52 1.15822e-52 1.17536e-52 1.19285e-52 1.21002e-52 1.22635e-52 1.24152e-52 1.2554e-52 1.26805e-52 1.27967e-52 1.29058e-52 1.3011e-52 1.31156e-52 1.3222e-52 1.33312e-52 1.34428e-52 1.35544e-52 1.36619e-52 1.37597e-52 1.38409e-52 1.38984e-52 1.39252e-52 1.39158e-52 1.38664e-52 1.37761e-52 1.36466e-52 1.34823e-52 1.32899e-52 1.30776e-52 1.28541e-52 1.26276e-52 1.24046e-52 1.21897e-52 1.19846e-52 1.17886e-52 1.15985e-52 1.14097e-52 1.12171e-52 1.10161e-52 1.08042e-52 1.05813e-52 1.03509e-52 1.01198e-52 9.89759e-53 9.6961e-53 9.52762e-53 9.40349e-53 9.33245e-53 9.31938e-53 9.36438e-53 9.46257e-53 9.60449e-53 9.77716e-53 9.96554e-53 1.01543e-52 1.03294e-52 1.04798e-52 1.05983e-52 1.06823e-52 1.07332e-52 1.07565e-52 1.076e-52 1.07532e-52 1.07453e-52 1.07441e-52 1.07552e-52 1.07806e-52 1.08187e-52 1.08642e-52 1.09084e-52 1.09396e-52 1.09448e-52 1.09099e-52 1.08216e-52 1.06682e-52 1.04409e-52 1.01341e-52 9.74649e-53 9.28067e-53 8.74324e-53 8.14422e-53 7.49641e-53 6.81455e-53 6.11447e-53 5.41222e-53 4.72325e-53 4.06165e-53 3.43958e-53 2.86679e-53 2.35029e-53 1.89425e-53 1.50007e-53 1.1666e-53 8.90575e-54 6.67074e-54 4.90085e-54 3.53041e-54 2.49296e-54 1.72523e-54 1.16989e-54 7.77227e-55 5.05845e-55 3.225e-55 2.01407e-55 1.23214e-55 7.38406e-56 4.33522e-56 2.4937e-56 1.40552e-56 7.76323e-57 4.2026e-57 2.23011e-57 1.16021e-57 5.91864e-58 2.96112e-58 1.45318e-58 6.99665e-59 3.30562e-59 1.53282e-59 6.97738e-60 3.11846e-60 1.36874e-60 5.90097e-61 2.49939e-61 1.04025e-61 4.25525e-62 1.71112e-62 6.76531e-63 2.63048e-63 1.00601e-63 3.78512e-64 1.40134e-64 5.10597e-65 1.83132e-65 6.46665e-66 2.24853e-66 7.69956e-67 2.59487e-67 8.5426e-68 2.5372e-68 0 
0 1.43092e-94 7.65734e-94 3.92143e-93 1.98676e-92 9.96928e-92 4.9543e-91 2.43819e-90 1.18817e-89 5.73304e-89 2.73869e-88 1.29514e-87 6.06273e-87 2.80902e-86 1.28807e-85 5.84492e-85 2.62441e-84 1.16588e-83 5.12398e-83 2.22763e-82 9.57898e-82 4.0737e-81 1.71319e-80 7.12399e-80 2.92882e-79 1.19033e-78 4.78183e-78 1.89856e-77 7.44917e-77 2.88795e-76 1.10616e-75 4.18541e-75 1.56421e-74 5.7734e-74 2.10422e-73 7.57207e-73 2.68994e-72 9.43223e-72 3.26414e-71 1.11466e-70 3.75554e-70 1.24822e-69 4.09199e-69 1.32292e-68 4.21717e-68 1.32533e-67 4.10558e-67 1.25342e-66 3.77069e-66 1.11755e-65 3.26259e-65 9.38053e-65 2.65573e-64 7.40202e-64 2.0307e-63 5.48264e-63 1.45645e-62 3.80608e-62 9.78252e-62 2.47245e-61 6.14353e-61 1.50049e-60 3.6015e-60 8.4933e-60 1.96752e-59 4.47631e-59 9.99967e-59 2.19291e-58 4.71991e-58 9.96845e-58 2.06543e-57 4.19747e-57 8.36502e-57 1.63439e-56 3.13015e-56 5.87495e-56 1.0804e-55 1.94637e-55 3.43434e-55 5.93415e-55 1.00391e-54 1.6626e-54 2.69507e-54 4.27543e-54 6.63693e-54 1.00806e-53 1.49798e-53 2.17769e-53 3.09702e-53 4.30869e-53 5.86426e-53 7.80869e-53 1.01739e-52 1.2972e-52 1.61897e-52 1.97834e-52 2.36785e-52 2.77713e-52 3.19355e-52 3.60319e-52 3.99206e-52 4.34751e-52 4.65944e-52 4.92129e-52 5.13063e-52 5.28921e-52 5.40253e-52 5.47895e-52 5.5286e-52 5.56207e-52 5.58928e-52 5.61852e-52 5.6558e-52 5.7046e-52 5.76595e-52 5.83879e-52 5.92055e-52 6.00776e-52 6.09673e-52 6.18411e-52 6.26724e-52 6.34445e-52 6.4151e-52 6.47948e-52 6.53865e-52 6.59415e-52 6.64772e-52 6.70095e-52 6.75508e-52 6.81065e-52 6.86742e-52 6.92422e-52 6.97894e-52 7.02871e-52 7.07005e-52 7.0993e-52 7.11296e-52 7.10816e-52 7.08305e-52 7.03708e-52 6.97114e-52 6.88751e-52 6.78959e-52 6.68155e-52 6.56782e-52 6.45254e-52 6.3391e-52 6.22978e-52 6.12548e-52 6.02578e-52 5.92909e-52 5.83305e-52 5.73503e-52 5.63275e-52 5.52485e-52 5.41135e-52 5.29397e-52 5.17618e-52 5.06294e-52 4.96023e-52 4.87433e-52 4.81104e-52 4.77482e-52 4.76815e-52 4.79109e-52 4.84116e-52 4.91354e-52 5.00159e-52 5.09766e-52 5.1939e-52 5.28318e-52 5.35986e-52 5.42029e-52 5.46307e-52 5.48901e-52 5.50083e-52 5.5026e-52 5.49907e-52 5.49498e-52 5.49437e-52 5.49999e-52 5.51292e-52 5.53237e-52 5.5556e-52 5.57815e-52 5.59417e-52 5.59688e-52 5.57919e-52 5.53428e-52 5.4562e-52 5.34036e-52 5.18401e-52 4.98636e-52 4.74876e-52 4.47454e-52 4.16879e-52 3.838e-52 3.48969e-52 3.13192e-52 2.7729e-52 2.42051e-52 2.08197e-52 1.76353e-52 1.47019e-52 1.20558e-52 9.71848e-53 7.69752e-53 5.98732e-53 4.57132e-53 3.42449e-53 2.51614e-53 1.81266e-53 1.28005e-53 8.85871e-54 6.00713e-54 3.99081e-54 2.59724e-54 1.65576e-54 1.03397e-54 6.32486e-55 3.78999e-55 2.22484e-55 1.27959e-55 7.21104e-56 3.98228e-56 2.15542e-56 1.14357e-56 5.94826e-57 3.03382e-57 1.51752e-57 7.44575e-58 3.58417e-58 1.69301e-58 7.84881e-59 3.57198e-59 1.59611e-59 7.00404e-60 3.01895e-60 1.27842e-60 5.31965e-61 2.17559e-61 8.74661e-62 3.45746e-62 1.34405e-62 5.1392e-63 1.93324e-63 7.15591e-64 2.60685e-64 9.34805e-65 3.30033e-65 1.14736e-65 3.92819e-66 1.32364e-66 4.35688e-67 1.29385e-67 0 
0 7.17301e-94 3.83841e-93 1.96564e-92 9.95845e-92 4.99688e-91 2.48318e-90 1.22203e-89 5.95511e-89 2.87336e-88 1.3726e-87 6.49108e-87 3.03856e-86 1.40785e-85 6.4557e-85 2.92946e-84 1.31537e-83 5.8436e-83 2.56829e-82 1.11659e-81 4.80156e-81 2.04206e-80 8.58825e-80 3.57144e-79 1.46837e-78 5.96808e-78 2.39767e-77 9.52029e-77 3.73564e-76 1.44838e-75 5.54813e-75 2.09945e-74 7.84701e-74 2.89657e-73 1.05582e-72 3.79982e-72 1.35003e-71 4.73444e-71 1.63863e-70 5.59645e-70 1.88584e-69 6.26885e-69 2.05541e-68 6.64611e-68 2.11898e-67 6.66049e-67 2.06364e-66 6.30141e-66 1.89602e-65 5.62051e-65 1.64119e-64 4.71971e-64 1.33649e-63 3.72587e-63 1.0224e-62 2.76099e-62 7.33623e-62 1.91761e-61 4.92992e-61 1.24631e-60 3.0976e-60 7.56751e-60 1.81684e-59 4.28571e-59 9.93074e-59 2.25995e-58 5.04987e-58 1.10773e-57 2.38485e-57 5.03816e-57 1.04417e-56 2.12257e-56 4.23112e-56 8.26908e-56 1.58408e-55 2.97388e-55 5.47028e-55 9.85716e-55 1.73967e-54 3.0066e-54 5.0875e-54 8.42716e-54 1.36628e-53 2.16783e-53 3.36574e-53 5.11286e-53 7.59866e-53 1.10478e-52 1.57131e-52 2.18624e-52 2.97572e-52 3.96256e-52 5.16293e-52 6.58297e-52 8.21579e-52 1.00393e-51 1.20154e-51 1.40916e-51 1.62036e-51 1.82807e-51 2.02519e-51 2.20532e-51 2.36332e-51 2.49588e-51 2.60179e-51 2.68193e-51 2.73911e-51 2.77758e-51 2.80248e-51 2.81918e-51 2.83271e-51 2.84728e-51 2.86592e-51 2.89041e-51 2.92125e-51 2.95792e-51 2.99911e-51 3.04307e-51 3.08793e-51 3.132e-51 3.17392e-51 3.21287e-51 3.2485e-51 3.28097e-51 3.31081e-51 3.3388e-51 3.36581e-51 3.39265e-51 3.41994e-51 3.44796e-51 3.47659e-51 3.50523e-51 3.53283e-51 3.55793e-51 3.57878e-51 3.59354e-51 3.60043e-51 3.59801e-51 3.58534e-51 3.56216e-51 3.5289e-51 3.48672e-51 3.43734e-51 3.38285e-51 3.3255e-51 3.26737e-51 3.21019e-51 3.15508e-51 3.10251e-51 3.05227e-51 3.00354e-51 2.95513e-51 2.90572e-51 2.85414e-51 2.7997e-51 2.74242e-51 2.68317e-51 2.62369e-51 2.56649e-51 2.51461e-51 2.47122e-51 2.43924e-51 2.42093e-51 2.41756e-51 2.42916e-51 2.45446e-51 2.49104e-51 2.53553e-51 2.58408e-51 2.63271e-51 2.67782e-51 2.71656e-51 2.74708e-51 2.76868e-51 2.78176e-51 2.78772e-51 2.78859e-51 2.78678e-51 2.78469e-51 2.78437e-51 2.78719e-51 2.79373e-51 2.80356e-51 2.81531e-51 2.82673e-51 2.83485e-51 2.83627e-51 2.82739e-51 2.80476e-51 2.76537e-51 2.7069e-51 2.62793e-51 2.52808e-51 2.40799e-51 2.26934e-51 2.11469e-51 1.94732e-51 1.771e-51 1.58982e-51 1.40793e-51 1.22932e-51 1.05765e-51 8.96101e-52 7.47224e-52 6.1287e-52 4.94153e-52 3.91467e-52 3.04543e-52 2.32552e-52 1.74231e-52 1.28028e-52 9.22398e-53 6.51402e-53 4.50817e-53 3.057e-53 2.03085e-53 1.32163e-53 8.42494e-54 5.26067e-54 3.21764e-54 1.92785e-54 1.13155e-54 6.50702e-55 3.66639e-55 2.02441e-55 1.09551e-55 5.81118e-56 3.02208e-56 1.54104e-56 7.70672e-57 3.78049e-57 1.81941e-57 8.5922e-58 3.98245e-58 1.812e-58 8.09488e-59 3.55138e-59 1.5304e-59 6.47921e-60 2.69547e-60 1.10213e-60 4.42994e-61 1.75073e-61 6.80429e-62 2.60119e-62 9.78296e-63 3.62044e-63 1.31864e-63 4.72764e-64 1.66878e-64 5.80042e-65 1.98551e-65 6.68919e-66 2.20144e-66 6.53667e-67 0 
0 3.56101e-93 1.9055e-92 9.75774e-92 4.9434e-91 2.48041e-90 1.2326e-89 6.06587e-89 2.95593e-88 1.42623e-87 6.81308e-87 3.22193e-86 1.50823e-85 6.98811e-85 3.20444e-84 1.45413e-83 6.52939e-83 2.90079e-82 1.27495e-81 5.54314e-81 2.38376e-80 1.01384e-79 4.26408e-79 1.77332e-78 7.2913e-78 2.96368e-77 1.19074e-76 4.72835e-76 1.85549e-75 7.1947e-75 2.75624e-74 1.04308e-73 3.89907e-73 1.43942e-72 5.2474e-72 1.88872e-71 6.71124e-71 2.35389e-70 8.14813e-70 2.78326e-69 9.38017e-69 3.11862e-68 1.02269e-67 3.3074e-67 1.05469e-66 3.31575e-66 1.02752e-65 3.13819e-65 9.44437e-65 2.80024e-64 8.17847e-64 2.35247e-63 6.66302e-63 1.85795e-62 5.09955e-62 1.37746e-61 3.66096e-61 9.57177e-61 2.46141e-60 6.22418e-60 1.54739e-59 3.78132e-59 9.08082e-59 2.14265e-58 4.96628e-58 1.1305e-57 2.52681e-57 5.54432e-57 1.19399e-56 2.52309e-56 5.23061e-56 1.06357e-55 2.12069e-55 4.14569e-55 7.94385e-55 1.49173e-54 2.74465e-54 4.94694e-54 8.73282e-54 1.5096e-53 2.55496e-53 4.23302e-53 6.86427e-53 1.08932e-52 1.69154e-52 2.56998e-52 3.81998e-52 5.55456e-52 7.90097e-52 1.09939e-51 1.49649e-51 1.99286e-51 2.59662e-51 3.31084e-51 4.13202e-51 5.049e-51 6.04262e-51 7.08635e-51 8.14787e-51 9.19159e-51 1.01819e-50 1.10864e-50 1.18794e-50 1.25444e-50 1.30753e-50 1.34765e-50 1.37624e-50 1.39541e-50 1.40777e-50 1.41602e-50 1.42268e-50 1.42986e-50 1.43909e-50 1.45126e-50 1.46662e-50 1.48492e-50 1.50548e-50 1.52743e-50 1.54984e-50 1.57186e-50 1.59281e-50 1.61228e-50 1.63008e-50 1.64631e-50 1.66122e-50 1.6752e-50 1.6887e-50 1.70211e-50 1.71575e-50 1.72975e-50 1.74405e-50 1.75836e-50 1.77215e-50 1.78469e-50 1.79512e-50 1.80249e-50 1.80594e-50 1.80473e-50 1.7984e-50 1.78682e-50 1.7702e-50 1.74911e-50 1.72443e-50 1.69721e-50 1.66855e-50 1.63951e-50 1.61094e-50 1.58342e-50 1.55717e-50 1.53208e-50 1.50775e-50 1.48357e-50 1.45889e-50 1.43311e-50 1.4059e-50 1.37726e-50 1.34762e-50 1.31786e-50 1.28924e-50 1.26327e-50 1.24154e-50 1.22553e-50 1.21637e-50 1.21468e-50 1.22049e-50 1.23316e-50 1.25147e-50 1.27375e-50 1.29806e-50 1.32241e-50 1.345e-50 1.36439e-50 1.37966e-50 1.39047e-50 1.39701e-50 1.39998e-50 1.4004e-50 1.39948e-50 1.39843e-50 1.39826e-50 1.39967e-50 1.40293e-50 1.40786e-50 1.41375e-50 1.41948e-50 1.42357e-50 1.42431e-50 1.41989e-50 1.4086e-50 1.38891e-50 1.35967e-50 1.32015e-50 1.27016e-50 1.21002e-50 1.14056e-50 1.06305e-50 9.79127e-51 8.90687e-51 7.99768e-51 7.08447e-51 6.18733e-51 5.32469e-51 4.51252e-51 3.76373e-51 3.0877e-51 2.49012e-51 1.97305e-51 1.5352e-51 1.17246e-51 8.7853e-52 6.4562e-52 4.65179e-52 3.28526e-52 2.27367e-52 1.54178e-52 1.02422e-52 6.66501e-53 4.24841e-53 2.65253e-53 1.62222e-53 9.71826e-54 5.70334e-54 3.2792e-54 1.84735e-54 1.01983e-54 5.5178e-55 2.92634e-55 1.52151e-55 7.75693e-56 3.87835e-56 1.90207e-56 9.15184e-57 4.32094e-57 2.00227e-57 9.10802e-58 4.06792e-58 1.78425e-58 7.68703e-59 3.25365e-59 1.35326e-59 5.53191e-60 2.223e-60 8.78339e-61 3.41293e-61 1.30442e-61 4.90481e-62 1.81476e-62 6.60834e-63 2.36876e-63 8.35964e-64 2.90512e-64 9.94246e-65 3.34899e-65 1.10198e-65 3.27159e-66 0 
0 1.75063e-92 9.36737e-92 4.79674e-91 2.43004e-90 1.21928e-89 6.05893e-89 2.98167e-88 1.45297e-87 7.01054e-87 3.34892e-86 1.58372e-85 7.41368e-85 3.43504e-84 1.57518e-83 7.14811e-83 3.20975e-82 1.42603e-81 6.26785e-81 2.72521e-80 1.17199e-79 4.98485e-79 2.09668e-78 8.72006e-78 3.58563e-77 1.45755e-76 5.85653e-76 2.32578e-75 9.12757e-75 3.53956e-74 1.35611e-73 5.13265e-73 1.91881e-72 7.08451e-72 2.58296e-71 9.29818e-71 3.30438e-70 1.15914e-69 4.01301e-69 1.37098e-68 4.62124e-68 1.53668e-67 5.0401e-67 1.63027e-66 5.19968e-66 1.635e-65 5.06774e-65 1.54808e-64 4.65991e-64 1.38196e-63 4.03709e-63 1.1615e-62 3.29057e-62 9.17782e-62 2.51968e-61 6.80775e-61 1.80981e-60 4.73308e-60 1.21745e-59 3.07943e-59 7.65787e-59 1.87187e-58 4.49656e-58 1.06129e-57 2.46059e-57 5.6028e-57 1.25267e-56 2.74941e-56 5.9227e-56 1.25193e-55 2.59614e-55 5.2804e-55 1.05318e-54 2.05943e-54 3.94732e-54 7.41447e-54 1.36456e-53 2.46011e-53 4.3439e-53 7.51089e-53 1.27149e-52 2.10703e-52 3.41746e-52 5.42433e-52 8.42458e-52 1.28016e-51 1.90307e-51 2.76756e-51 3.93706e-51 5.47872e-51 7.45814e-51 9.9324e-51 1.29419e-50 1.65019e-50 2.05946e-50 2.51643e-50 3.01152e-50 3.53149e-50 4.06021e-50 4.57992e-50 5.07286e-50 5.52294e-50 5.91736e-50 6.24788e-50 6.5115e-50 6.71054e-50 6.85204e-50 6.94673e-50 7.00747e-50 7.04775e-50 7.08017e-50 7.1152e-50 7.16046e-50 7.22034e-50 7.29614e-50 7.38652e-50 7.4882e-50 7.59684e-50 7.70779e-50 7.81679e-50 7.92053e-50 8.0169e-50 8.10506e-50 8.18539e-50 8.25921e-50 8.32844e-50 8.39525e-50 8.46164e-50 8.52913e-50 8.59844e-50 8.66925e-50 8.7401e-50 8.80839e-50 8.8705e-50 8.92212e-50 8.95864e-50 8.97572e-50 8.96975e-50 8.93843e-50 8.88106e-50 8.79876e-50 8.69436e-50 8.57216e-50 8.43734e-50 8.29547e-50 8.15171e-50 8.01032e-50 7.87412e-50 7.74423e-50 7.62011e-50 7.49974e-50 7.38012e-50 7.25796e-50 7.13035e-50 6.99558e-50 6.85366e-50 6.70676e-50 6.55923e-50 6.4173e-50 6.28849e-50 6.18074e-50 6.10131e-50 6.05585e-50 6.04748e-50 6.07629e-50 6.13916e-50 6.23004e-50 6.3406e-50 6.4612e-50 6.582e-50 6.69404e-50 6.79023e-50 6.86597e-50 6.91952e-50 6.95192e-50 6.96657e-50 6.96859e-50 6.96398e-50 6.95868e-50 6.95778e-50 6.96474e-50 6.98095e-50 7.0054e-50 7.03468e-50 7.06319e-50 7.08359e-50 7.08739e-50 7.06566e-50 7.00981e-50 6.91233e-50 6.76742e-50 6.57151e-50 6.32356e-50 6.02515e-50 5.68034e-50 5.29543e-50 4.8785e-50 4.43893e-50 3.98684e-50 3.53255e-50 3.08603e-50 2.65648e-50 2.25188e-50 1.87868e-50 1.5416e-50 1.24351e-50 9.8549e-51 7.66927e-51 5.85803e-51 4.38998e-51 3.22644e-51 2.32486e-51 1.64197e-51 1.1364e-51 7.70582e-52 5.11888e-52 3.33088e-52 2.123e-52 1.32538e-52 8.10474e-53 4.85468e-53 2.84862e-53 1.63757e-53 9.2237e-54 5.09098e-54 2.75391e-54 1.46021e-54 7.59048e-55 3.86888e-55 1.93393e-55 9.48232e-56 4.56133e-56 2.15305e-56 9.97444e-57 4.53609e-57 2.02544e-57 8.88163e-58 3.82549e-58 1.61879e-58 6.73119e-59 2.75092e-59 1.10519e-59 4.36571e-60 1.69596e-60 6.48046e-61 2.43618e-61 9.01173e-62 3.28084e-62 1.17577e-62 4.14853e-63 1.44139e-63 4.93202e-64 1.66096e-64 5.46435e-65 1.62203e-65 0 
0 8.52166e-92 4.55972e-91 2.33484e-90 1.18281e-89 5.93468e-89 2.94908e-88 1.45126e-87 7.072e-87 3.41222e-86 1.63001e-85 7.70847e-85 3.60852e-84 1.67199e-83 7.6673e-83 3.47948e-82 1.56245e-81 6.9419e-81 3.05131e-80 1.32674e-79 5.70603e-79 2.42708e-78 1.02092e-77 4.24625e-77 1.74615e-76 7.09859e-76 2.8525e-75 1.1329e-74 4.4465e-74 1.72446e-73 6.60764e-73 2.50116e-72 9.3515e-72 3.45313e-71 1.25915e-70 4.53331e-70 1.61128e-69 5.653e-69 1.95741e-68 6.68827e-68 2.25483e-67 7.49917e-67 2.46008e-66 7.95887e-66 2.53894e-65 7.98514e-65 2.47554e-64 7.56381e-64 2.27731e-63 6.75523e-63 1.97386e-62 5.68032e-62 1.60965e-61 4.49066e-61 1.23319e-60 3.33276e-60 8.86238e-60 2.31837e-59 5.96505e-59 1.50923e-58 3.75423e-58 9.17946e-58 2.20573e-57 5.20759e-57 1.20774e-56 2.7509e-56 6.15234e-56 1.35076e-55 2.91066e-55 6.15442e-55 1.27664e-54 2.59741e-54 5.18213e-54 1.01363e-53 1.9434e-53 3.65144e-53 6.72199e-53 1.21221e-52 2.141e-52 3.70285e-52 6.26991e-52 1.03925e-51 1.68594e-51 2.67652e-51 4.15768e-51 6.31884e-51 9.39491e-51 1.36644e-50 1.94407e-50 2.70557e-50 3.68332e-50 4.90552e-50 6.39207e-50 8.15043e-50 1.01718e-49 1.24284e-49 1.4873e-49 1.74398e-49 2.00493e-49 2.26136e-49 2.50449e-49 2.72638e-49 2.92074e-49 3.0835e-49 3.21319e-49 3.31098e-49 3.38037e-49 3.42665e-49 3.4562e-49 3.47566e-49 3.49126e-49 3.50817e-49 3.53014e-49 3.55932e-49 3.59636e-49 3.6406e-49 3.69042e-49 3.74367e-49 3.79808e-49 3.85155e-49 3.90243e-49 3.9497e-49 3.99295e-49 4.03236e-49 4.06856e-49 4.10252e-49 4.13528e-49 4.16784e-49 4.20094e-49 4.23493e-49 4.26966e-49 4.30441e-49 4.33791e-49 4.36838e-49 4.39371e-49 4.41164e-49 4.42002e-49 4.4171e-49 4.40174e-49 4.3736e-49 4.33322e-49 4.282e-49 4.22205e-49 4.15592e-49 4.08632e-49 4.01582e-49 3.94649e-49 3.87971e-49 3.81605e-49 3.75521e-49 3.69621e-49 3.63758e-49 3.57768e-49 3.51509e-49 3.44896e-49 3.3793e-49 3.30717e-49 3.2347e-49 3.16497e-49 3.10168e-49 3.04873e-49 3.00969e-49 2.98734e-49 2.98323e-49 2.99739e-49 3.0283e-49 3.07298e-49 3.12733e-49 3.18662e-49 3.246e-49 3.30107e-49 3.34833e-49 3.38554e-49 3.41184e-49 3.42773e-49 3.43489e-49 3.43585e-49 3.43355e-49 3.43091e-49 3.43044e-49 3.43385e-49 3.44181e-49 3.45384e-49 3.46826e-49 3.48232e-49 3.49241e-49 3.49435e-49 3.48377e-49 3.45642e-49 3.4086e-49 3.33747e-49 3.24124e-49 3.11941e-49 2.9727e-49 2.80312e-49 2.61374e-49 2.40852e-49 2.19206e-49 1.96933e-49 1.7454e-49 1.5252e-49 1.31326e-49 1.11354e-49 9.29234e-50 7.6269e-50 6.15352e-50 4.87767e-50 3.79656e-50 2.90037e-50 2.17379e-50 1.59779e-50 1.15139e-50 8.13219e-51 5.62832e-51 3.81647e-51 2.53514e-51 1.64953e-51 1.05127e-51 6.56235e-52 4.01238e-52 2.40304e-52 1.40983e-52 8.10317e-53 4.56328e-53 2.51817e-53 1.36188e-53 7.21952e-54 3.75198e-54 1.91193e-54 9.55476e-55 4.68366e-55 2.25242e-55 1.06292e-55 4.92289e-56 2.2382e-56 9.99132e-57 4.38006e-57 1.88608e-57 7.97901e-58 3.31693e-58 1.35522e-58 5.44325e-59 2.14964e-59 8.34869e-60 3.18935e-60 1.19867e-60 4.43299e-61 1.61351e-61 5.78109e-62 2.03933e-62 7.08402e-63 2.42343e-63 8.15977e-64 2.68394e-64 7.96571e-65 0 
0 4.10704e-91 2.19753e-90 1.12524e-89 5.70028e-89 2.86004e-88 1.42121e-87 6.99385e-87 3.4081e-86 1.6444e-85 7.85536e-85 3.71491e-84 1.73907e-83 8.05806e-83 3.6953e-82 1.67701e-81 7.53082e-81 3.34604e-80 1.47082e-79 6.39558e-79 2.75075e-78 1.17011e-77 4.92223e-77 2.04743e-76 8.42012e-76 3.42329e-75 1.37573e-74 5.46437e-74 2.14492e-73 8.31942e-73 3.18811e-72 1.20692e-71 4.51309e-71 1.66671e-70 6.07834e-70 2.1887e-69 7.78047e-69 2.73013e-68 9.45488e-68 3.23119e-67 1.08953e-66 3.62426e-66 1.18915e-65 3.84793e-65 1.22777e-64 3.86224e-64 1.19763e-63 3.66009e-63 1.10224e-62 3.27037e-62 9.55828e-62 2.75136e-61 7.79863e-61 2.17628e-60 5.97794e-60 1.61602e-59 4.29851e-59 1.1248e-58 2.89492e-58 7.32673e-58 1.82309e-57 4.459e-57 1.07179e-56 2.53123e-56 5.8723e-56 1.33797e-55 2.99333e-55 6.57404e-55 1.41706e-54 2.99725e-54 6.21933e-54 1.26577e-53 2.52615e-53 4.94273e-53 9.47943e-53 1.78162e-52 3.28077e-52 5.91803e-52 1.04553e-51 1.80872e-51 3.0634e-51 5.07883e-51 8.24108e-51 1.30859e-50 2.03313e-50 3.09049e-50 4.59567e-50 6.68504e-50 9.51211e-50 1.32392e-49 1.8025e-49 2.40073e-49 3.12833e-49 3.98892e-49 4.97814e-49 6.08236e-49 7.27835e-49 8.53392e-49 9.80999e-49 1.10636e-48 1.22518e-48 1.33357e-48 1.42845e-48 1.50784e-48 1.57105e-48 1.61864e-48 1.65233e-48 1.67473e-48 1.68895e-48 1.69825e-48 1.70568e-48 1.71375e-48 1.7243e-48 1.73838e-48 1.75631e-48 1.77775e-48 1.80193e-48 1.8278e-48 1.85423e-48 1.88021e-48 1.90493e-48 1.92791e-48 1.94892e-48 1.96807e-48 1.98566e-48 2.00216e-48 2.01807e-48 2.03389e-48 2.04997e-48 2.06648e-48 2.08336e-48 2.10025e-48 2.11653e-48 2.13134e-48 2.14366e-48 2.15237e-48 2.15645e-48 2.15504e-48 2.14757e-48 2.1339e-48 2.11427e-48 2.08938e-48 2.06024e-48 2.0281e-48 1.99428e-48 1.96003e-48 1.92635e-48 1.89391e-48 1.863e-48 1.83346e-48 1.80481e-48 1.77634e-48 1.74725e-48 1.71684e-48 1.68469e-48 1.65082e-48 1.61573e-48 1.58047e-48 1.54653e-48 1.51572e-48 1.48993e-48 1.47092e-48 1.46004e-48 1.45804e-48 1.46494e-48 1.47999e-48 1.50176e-48 1.52823e-48 1.55711e-48 1.58602e-48 1.61284e-48 1.63585e-48 1.65396e-48 1.66675e-48 1.67446e-48 1.67793e-48 1.67838e-48 1.67724e-48 1.67594e-48 1.6757e-48 1.67735e-48 1.68123e-48 1.68709e-48 1.69413e-48 1.701e-48 1.70594e-48 1.70693e-48 1.70183e-48 1.68856e-48 1.66533e-48 1.63074e-48 1.58393e-48 1.52461e-48 1.45317e-48 1.37055e-48 1.27824e-48 1.17816e-48 1.07255e-48 9.63835e-49 8.54479e-49 7.46889e-49 6.43285e-49 5.45603e-49 4.55418e-49 3.73887e-49 3.01727e-49 2.39217e-49 1.8623e-49 1.42291e-49 1.06659e-49 7.84044e-50 5.6503e-50 3.99092e-50 2.76216e-50 1.87295e-50 1.24407e-50 8.09421e-51 5.1581e-51 3.21948e-51 1.96821e-51 1.17859e-51 6.91343e-52 3.97285e-52 2.23685e-52 1.2341e-52 6.67281e-53 3.53651e-53 1.83747e-53 9.361e-54 4.6769e-54 2.29196e-54 1.10193e-54 5.19861e-55 2.40707e-55 1.09407e-55 4.88258e-56 2.13987e-56 9.21182e-57 3.89597e-57 1.61914e-57 6.61364e-58 2.65565e-58 1.04849e-58 4.07101e-59 1.5548e-59 5.84201e-60 2.15998e-60 7.85997e-61 2.81549e-61 9.92958e-62 3.44846e-62 1.17945e-62 3.9704e-63 1.30569e-63 3.87454e-64 0 