# vtk DataFile Version 3.0
Gray-Scott Simulation Output
ASCII
DATASET STRUCTURED_POINTS
DIMENSIONS 256 256 1
SPACING 1.0 1.0 1.0
ORIGIN 0 0 0
POINT_DATA 65536
SCALARS u double
LOOKUP_TABLE default
0 0 0 0 0 0 0 0 0 0 0 0 0 0 0 0 0 0 0 0 0 0 0 0 0 0 0 0 0 0 0 0 0 0 0 0 0 0 0 0 0 0 0 0 0 0 0 0 0 0 0 0 0 0 0 0 0 0 0 0 0 0 0 0 0 0 0 0 0 0 0 0 0 0 0 0 0 0 0 0 0 0 0 0 0 0 0 0 0 0 0 0 0 0 0 0 0 0 0 0 0 0 0 0 0 0 0 0 0 0 0 0 0 0 0 0 0 0 0 0 0 0 0 0 0 0 0 0 0 0 0 0 0 0 0 0 0 0 0 0 0 0 0 0 0 0 0 0 0 0 0 0 0 0 0 0 0 0 0 0 0 0 0 0 0 0 0 0 0 0 0 0 0 0 0 0 0 0 0 0 0 0 0 0 0 0 0 0 0 0 0 0 0 0 0 0 0 0 0 0 0 0 0 0 0 0 0 0 0 0 0 0 0 0 0 0 0 0 0 0 0 0 0 0 0 0 0 0 0 0 0 0 0 0 0 0 0 0 0 0 0 0 0 0 0 0 0 0 0 0 0 0 0 0 0 0 
0 8.70225e-77 3.06799e-76 9.88657e-76 3.1372e-75 9.86717e-75 3.0778e-74 9.52111e-74 2.92087e-73 8.88564e-73 2.68036e-72 8.01679e-72 2.3773e-71 6.98908e-71 2.03695e-70 5.88491e-70 1.68528e-69 4.78351e-69 1.34567e-68 3.75165e-68 1.03649e-67 2.83754e-67 7.69701e-67 2.0686e-66 5.50777e-66 1.45275e-65 3.79568e-65 9.82296e-65 2.51778e-64 6.39124e-64 1.60661e-63 3.99913e-63 9.85629e-63 2.40504e-62 5.80979e-62 1.38929e-61 3.28839e-61 7.70372e-61 1.78611e-60 4.09798e-60 9.30358e-60 2.08984e-59 4.64433e-59 1.02104e-58 2.2204e-58 4.7759e-58 1.01596e-57 2.13723e-57 4.44578e-57 9.14372e-57 1.85925e-56 3.73726e-56 7.42556e-56 1.45823e-55 2.83009e-55 5.42768e-55 1.02855e-54 1.92574e-54 3.56192e-54 6.50797e-54 1.17447e-53 2.0933e-53 3.68447e-53 6.40369e-53 1.0989e-52 1.86174e-52 3.11367e-52 5.14021e-52 8.37541e-52 1.34682e-51 2.13726e-51 3.34667e-51 5.17062e-51 7.88159e-51 1.18521e-50 1.75816e-50 2.57263e-50 3.71302e-50 5.28547e-50 7.42044e-50 1.02742e-49 1.40291e-49 1.88913e-49 2.50866e-49 3.28528e-49 4.24287e-49 5.40399e-49 6.78826e-49 8.41044e-49 1.02785e-48 1.2392e-48 1.47402e-48 1.73017e-48 2.00439e-48 2.29234e-48 2.58877e-48 2.88778e-48 3.18306e-48 3.4683e-48 3.73756e-48 3.98558e-48 4.20817e-48 4.4024e-48 4.56676e-48 4.70117e-48 4.80692e-48 4.88647e-48 4.94323e-48 4.98119e-48 5.00468e-48 5.01796e-48 5.02504e-48 5.02941e-48 5.03391e-48 5.04067e-48 5.05109e-48 5.06591e-48 5.08534e-48 5.10912e-48 5.1367e-48 5.16737e-48 5.20033e-48 5.23482e-48 5.27011e-48 5.30559e-48 5.34074e-48 5.3751e-48 5.40822e-48 5.43968e-48 5.46901e-48 5.49569e-48 5.51912e-48 5.53866e-48 5.55362e-48 5.56333e-48 5.56715e-48 5.56458e-48 5.55522e-48 5.5389e-48 5.51564e-48 5.48566e-48 5.4494e-48 5.40745e-48 5.36052e-48 5.30938e-48 5.2548e-48 5.19753e-48 5.13822e-48 5.07743e-48 5.01567e-48 4.95333e-48 4.89084e-48 4.82861e-48 4.76717e-48 4.70714e-48 4.64931e-48 4.59459e-48 4.54402e-48 4.4987e-48 4.4597e-48 4.428e-48 4.40436e-48 4.38926e-48 4.38283e-48 4.3848e-48 4.39451e-48 4.41096e-48 4.43288e-48 4.45879e-48 4.48718e-48 4.51657e-48 4.54564e-48 4.57334e-48 4.59887e-48 4.62176e-48 4.64182e-48 4.65906e-48 4.67365e-48 4.68575e-48 4.69548e-48 4.70274e-48 4.70719e-48 4.70816e-48 4.70461e-48 4.69519e-48 4.67826e-48 4.65194e-48 4.61425e-48 4.5632e-48 4.4969e-48 4.41373e-48 4.31239e-48 4.19204e-48 4.05236e-48 3.89361e-48 3.71666e-48 3.52295e-48 3.31453e-48 3.09394e-48 2.86413e-48 2.62841e-48 2.39024e-48 2.15316e-48 1.92061e-48 1.69584e-48 1.48172e-48 1.28071e-48 1.09474e-48 9.25196e-49 7.72866e-49 6.38004e-49 5.20355e-49 4.19227e-49 3.33579e-49 2.62108e-49 2.03347e-49 1.55747e-49 1.17756e-49 8.788e-50 6.47315e-50 4.70583e-50 3.37624e-50 2.39054e-50 1.67039e-50 1.15185e-50 7.83853e-51 5.26429e-51 3.48916e-51 2.2824e-51 1.47356e-51 9.39011e-52 5.90634e-52 3.66721e-52 2.24776e-52 1.36015e-52 8.12596e-53 4.79342e-53 2.7921e-53 1.60606e-53 9.12376e-54 5.11918e-54 2.83712e-54 1.55324e-54 8.40086e-55 4.48917e-55 2.37031e-55 1.23673e-55 6.37697e-56 3.24978e-56 1.63686e-56 8.14734e-57 4.00341e-57 1.93239e-57 8.94707e-58 3.49262e-58 0 
0 3.06327e-76 1.08016e-75 3.48159e-75 1.10504e-74 3.47642e-74 1.08464e-73 3.35617e-73 1.02986e-72 3.1338e-72 9.45569e-72 2.82892e-71 8.39125e-71 2.46767e-70 7.19408e-70 2.07905e-69 5.95564e-69 1.69099e-68 4.75851e-68 1.32707e-67 3.6676e-67 1.00439e-66 2.72542e-66 7.32723e-66 1.95162e-65 5.14952e-65 1.34594e-64 3.48451e-64 8.93478e-64 2.26892e-63 5.70581e-63 1.42084e-62 3.50325e-62 8.55185e-62 2.06671e-61 4.94421e-61 1.17078e-60 2.74399e-60 6.36477e-60 1.46096e-59 3.31831e-59 7.45728e-59 1.65803e-58 3.64682e-58 7.93432e-58 1.70742e-57 3.63388e-57 7.64819e-57 1.59172e-56 3.27533e-56 6.66323e-56 1.34003e-55 2.66383e-55 5.23382e-55 1.01627e-54 1.95003e-54 3.69718e-54 6.92557e-54 1.28161e-53 2.34278e-53 4.22998e-53 7.54288e-53 1.32827e-52 2.30965e-52 3.96529e-52 6.72097e-52 1.12455e-51 1.85727e-51 3.02748e-51 4.87037e-51 7.73178e-51 1.21115e-50 1.87191e-50 2.85432e-50 4.29362e-50 6.37115e-50 9.32516e-50 1.34622e-49 1.91677e-49 2.69155e-49 3.72732e-49 5.09024e-49 6.85517e-49 9.10401e-49 1.19229e-48 1.53983e-48 1.96117e-48 2.46338e-48 3.05172e-48 3.72902e-48 4.49493e-48 5.3455e-48 6.27276e-48 7.26468e-48 8.30538e-48 9.3757e-48 1.0454e-47 1.15175e-47 1.25431e-47 1.35093e-47 1.43972e-47 1.51917e-47 1.58825e-47 1.64643e-47 1.6937e-47 1.73057e-47 1.75796e-47 1.77712e-47 1.78954e-47 1.79678e-47 1.80041e-47 1.80189e-47 1.80249e-47 1.80323e-47 1.80488e-47 1.80794e-47 1.81267e-47 1.81913e-47 1.82723e-47 1.83676e-47 1.84744e-47 1.859e-47 1.87113e-47 1.88359e-47 1.89614e-47 1.90859e-47 1.92077e-47 1.93253e-47 1.94371e-47 1.95413e-47 1.96362e-47 1.97196e-47 1.97892e-47 1.98425e-47 1.98771e-47 1.98909e-47 1.98818e-47 1.98486e-47 1.97907e-47 1.9708e-47 1.96014e-47 1.94725e-47 1.93233e-47 1.91564e-47 1.89746e-47 1.87806e-47 1.85769e-47 1.83661e-47 1.815e-47 1.79305e-47 1.77089e-47 1.74867e-47 1.72655e-47 1.7047e-47 1.68335e-47 1.66278e-47 1.64331e-47 1.62531e-47 1.60918e-47 1.5953e-47 1.58402e-47 1.57561e-47 1.57024e-47 1.56797e-47 1.56868e-47 1.57216e-47 1.57804e-47 1.58586e-47 1.5951e-47 1.60523e-47 1.61571e-47 1.62607e-47 1.63593e-47 1.64503e-47 1.65318e-47 1.66032e-47 1.66647e-47 1.67168e-47 1.67602e-47 1.67953e-47 1.68218e-47 1.68386e-47 1.68433e-47 1.68322e-47 1.68005e-47 1.67424e-47 1.66511e-47 1.65196e-47 1.63407e-47 1.61077e-47 1.58146e-47 1.54567e-47 1.50308e-47 1.45358e-47 1.39723e-47 1.33433e-47 1.26538e-47 1.19111e-47 1.1124e-47 1.0303e-47 9.45996e-48 8.60722e-48 7.75747e-48 6.92314e-48 6.1159e-48 5.34623e-48 4.62306e-48 3.95347e-48 3.34252e-48 2.79323e-48 2.30662e-48 1.88186e-48 1.51656e-48 1.20702e-48 9.4861e-49 7.36074e-49 5.63852e-49 4.2636e-49 3.18214e-49 2.34404e-49 1.70409e-49 1.22259e-49 8.65616e-50 6.04805e-50 4.17015e-50 2.83751e-50 1.90536e-50 1.26265e-50 8.25793e-51 5.33034e-51 3.3959e-51 2.13547e-51 1.32555e-51 8.12243e-52 4.91352e-52 2.93458e-52 1.73052e-52 1.00766e-52 5.79424e-53 3.29044e-53 1.84554e-53 1.02244e-53 5.59547e-54 3.0252e-54 1.61595e-54 8.52895e-55 4.4483e-55 2.29277e-55 1.16795e-55 5.8804e-56 2.92575e-56 1.43707e-56 6.93387e-57 3.20929e-57 1.25247e-57 0 
0 9.85335e-76 3.47524e-75 1.12044e-74 3.55722e-74 1.11942e-73 3.49361e-73 1.08134e-72 3.31919e-72 1.01032e-71 3.04945e-71 9.12622e-71 2.70797e-70 7.96622e-70 2.32323e-69 6.71641e-69 1.92468e-68 5.46679e-68 1.53896e-67 4.29358e-67 1.18707e-66 3.25218e-66 8.8284e-66 2.37449e-65 6.32716e-65 1.6702e-64 4.36736e-64 1.13117e-63 2.90181e-63 7.37236e-63 1.85485e-62 4.62109e-62 1.13994e-61 2.7841e-61 6.73166e-61 1.61124e-60 3.81735e-60 8.95151e-60 2.07743e-59 4.77106e-59 1.08425e-58 2.43798e-58 5.42352e-58 1.19357e-57 2.59829e-57 5.59458e-57 1.19137e-56 2.50891e-56 5.22452e-56 1.0757e-55 2.18965e-55 4.40619e-55 8.7642e-55 1.72299e-54 3.3476e-54 6.4272e-54 1.21929e-53 2.28534e-53 4.23163e-53 7.73992e-53 1.39829e-52 2.49486e-52 4.39584e-52 7.64795e-52 1.31375e-51 2.22795e-51 3.72976e-51 6.16313e-51 1.00514e-50 1.61778e-50 2.56946e-50 4.02676e-50 6.22627e-50 9.49782e-50 1.42926e-49 2.12159e-49 3.10631e-49 4.48575e-49 6.38865e-49 8.97317e-49 1.24288e-48 1.69764e-48 2.28656e-48 3.03696e-48 3.97751e-48 5.13697e-48 6.54238e-48 8.21709e-48 1.01784e-47 1.24352e-47 1.49861e-47 1.78171e-47 2.0901e-47 2.41971e-47 2.76518e-47 3.12006e-47 3.47708e-47 3.82859e-47 4.16691e-47 4.48489e-47 4.77626e-47 5.03605e-47 5.26088e-47 5.4491e-47 5.60084e-47 5.71787e-47 5.80336e-47 5.86161e-47 5.89762e-47 5.91671e-47 5.92415e-47 5.9248e-47 5.92289e-47 5.92184e-47 5.92418e-47 5.93154e-47 5.94478e-47 5.96404e-47 5.98898e-47 6.01887e-47 6.05279e-47 6.08973e-47 6.12874e-47 6.16892e-47 6.20951e-47 6.24985e-47 6.28938e-47 6.32757e-47 6.3639e-47 6.39782e-47 6.42872e-47 6.45589e-47 6.47858e-47 6.49598e-47 6.50731e-47 6.51183e-47 6.50893e-47 6.49817e-47 6.47933e-47 6.45243e-47 6.41775e-47 6.37578e-47 6.32722e-47 6.27289e-47 6.21369e-47 6.15053e-47 6.08426e-47 6.01564e-47 5.94533e-47 5.87389e-47 5.80178e-47 5.72948e-47 5.65748e-47 5.58635e-47 5.51683e-47 5.44983e-47 5.3864e-47 5.32777e-47 5.2752e-47 5.22997e-47 5.1932e-47 5.16581e-47 5.14835e-47 5.14097e-47 5.14336e-47 5.15477e-47 5.17401e-47 5.1996e-47 5.22982e-47 5.26289e-47 5.2971e-47 5.33093e-47 5.36311e-47 5.39277e-47 5.41935e-47 5.44265e-47 5.46273e-47 5.47978e-47 5.49404e-47 5.50568e-47 5.51461e-47 5.52045e-47 5.52245e-47 5.51944e-47 5.50985e-47 5.49176e-47 5.46298e-47 5.42119e-47 5.36403e-47 5.28926e-47 5.19491e-47 5.0794e-47 4.94166e-47 4.78119e-47 4.5982e-47 4.39359e-47 4.16894e-47 3.92654e-47 3.66929e-47 3.4006e-47 3.12428e-47 2.84442e-47 2.56519e-47 2.29068e-47 2.02477e-47 1.77097e-47 1.53224e-47 1.31099e-47 1.10893e-47 9.27107e-48 7.65907e-48 6.25099e-48 5.03922e-48 4.01186e-48 3.15376e-48 2.44767e-48 1.8753e-48 1.4182e-48 1.05857e-48 7.79811e-49 5.66922e-49 4.06729e-49 2.87955e-49 2.01177e-49 1.38695e-49 9.43587e-50 6.33498e-50 4.19723e-50 2.74441e-50 1.77101e-50 1.12798e-50 7.09104e-51 4.4002e-51 2.69535e-51 1.62992e-51 9.73104e-52 5.73616e-52 3.33877e-52 1.91906e-52 1.08934e-52 6.10721e-53 3.38194e-53 1.84999e-53 9.99743e-54 5.33779e-54 2.81595e-54 1.46798e-54 7.56272e-55 3.85067e-55 1.9378e-55 9.63676e-56 4.73113e-56 2.28173e-56 1.05564e-56 4.11851e-57 0 
0 3.12072e-75 1.10093e-74 3.55046e-74 1.12754e-73 3.54932e-73 1.10806e-72 3.43074e-72 1.05341e-71 3.20752e-71 9.6845e-71 2.89932e-70 8.60602e-70 2.53261e-69 7.38869e-69 2.13685e-68 6.12581e-68 1.74063e-67 4.90202e-67 1.36818e-66 3.78426e-66 1.0372e-65 2.8168e-65 7.57938e-65 2.02054e-64 5.3361e-64 1.39597e-63 3.61736e-63 9.28408e-63 2.35987e-62 5.94026e-62 1.48067e-61 3.65442e-61 8.92991e-61 2.1603e-60 5.17348e-60 1.22637e-59 2.87736e-59 6.68137e-59 1.53532e-58 3.49109e-58 7.8544e-58 1.74831e-57 3.84982e-57 8.38572e-57 1.80668e-56 3.84967e-56 8.112e-56 1.69027e-55 3.48232e-55 7.09291e-55 1.42818e-54 2.84253e-54 5.59176e-54 1.08711e-53 2.0885e-53 3.96454e-53 7.43545e-53 1.37764e-52 2.52135e-52 4.55785e-52 8.13717e-52 1.4346e-51 2.49742e-51 4.29254e-51 7.28377e-51 1.22005e-50 2.01714e-50 3.29149e-50 5.30041e-50 8.42262e-50 1.3206e-49 2.04287e-49 3.11764e-49 4.69345e-49 6.9696e-49 1.02081e-48 1.47461e-48 2.10076e-48 2.95138e-48 4.08889e-48 5.586e-48 7.52492e-48 9.99544e-48 1.30918e-47 1.69084e-47 2.15337e-47 2.70437e-47 3.34943e-47 4.09136e-47 4.92948e-47 5.85904e-47 6.87086e-47 7.95128e-47 9.08244e-47 1.02429e-46 1.14086e-46 1.25543e-46 1.36546e-46 1.46861e-46 1.56282e-46 1.6465e-46 1.71855e-46 1.77848e-46 1.82635e-46 1.8628e-46 1.8889e-46 1.90611e-46 1.91609e-46 1.92063e-46 1.92146e-46 1.9202e-46 1.91823e-46 1.91667e-46 1.91636e-46 1.91781e-46 1.92129e-46 1.92685e-46 1.93434e-46 1.94353e-46 1.95411e-46 1.96572e-46 1.97806e-46 1.99081e-46 2.00374e-46 2.01661e-46 2.02924e-46 2.04146e-46 2.05309e-46 2.06396e-46 2.07387e-46 2.0826e-46 2.08988e-46 2.09548e-46 2.09913e-46 2.1006e-46 2.09968e-46 2.09624e-46 2.09021e-46 2.08159e-46 2.07047e-46 2.05701e-46 2.04144e-46 2.02402e-46 2.00503e-46 1.98478e-46 1.96353e-46 1.94154e-46 1.919e-46 1.8961e-46 1.87298e-46 1.84981e-46 1.82672e-46 1.80391e-46 1.78161e-46 1.76011e-46 1.73976e-46 1.72093e-46 1.70406e-46 1.68954e-46 1.67773e-46 1.66894e-46 1.66335e-46 1.66099e-46 1.66178e-46 1.66547e-46 1.67168e-46 1.67992e-46 1.68965e-46 1.7003e-46 1.71131e-46 1.72218e-46 1.73253e-46 1.74206e-46 1.7506e-46 1.75809e-46 1.76455e-46 1.77005e-46 1.77467e-46 1.77847e-46 1.78143e-46 1.78344e-46 1.78425e-46 1.7835e-46 1.78067e-46 1.77516e-46 1.76626e-46 1.75322e-46 1.73526e-46 1.71167e-46 1.6818e-46 1.64512e-46 1.60126e-46 1.55006e-46 1.49155e-46 1.42601e-46 1.35392e-46 1.276e-46 1.19317e-46 1.10653e-46 1.01729e-46 9.2678e-47 8.36346e-47 7.47326e-47 6.60988e-47 5.7848e-47 5.00789e-47 4.28708e-47 3.62816e-47 3.03471e-47 2.50814e-47 2.04783e-47 1.65143e-47 1.31515e-47 1.03412e-47 8.02771e-48 6.15157e-48 4.65278e-48 3.47325e-48 2.55875e-48 1.86023e-48 1.33456e-48 9.44786e-49 6.60002e-49 4.54961e-49 3.09474e-49 2.07733e-49 1.37603e-49 8.99513e-50 5.80313e-50 3.69499e-50 2.32212e-50 1.44045e-50 8.82036e-51 5.33182e-51 3.18197e-51 1.87491e-51 1.09084e-51 6.26723e-52 3.55594e-52 1.99268e-52 1.10295e-52 6.03051e-53 3.25734e-53 1.7383e-53 9.16588e-54 4.77586e-54 2.45919e-54 1.2515e-54 6.29486e-55 3.12887e-55 1.53534e-55 7.40103e-56 3.42259e-56 1.33486e-56 0 
0 9.79629e-75 3.45677e-74 1.11512e-73 3.54244e-73 1.11545e-72 3.4834e-72 1.07887e-71 3.31378e-71 1.00935e-70 3.04861e-70 9.1301e-70 2.71105e-69 7.98113e-69 2.32932e-68 6.73912e-68 1.93269e-67 5.49389e-67 1.54784e-66 4.32191e-66 1.19591e-65 3.27921e-65 8.90954e-65 2.39844e-64 6.39678e-64 1.69014e-63 4.42365e-63 1.14685e-62 2.94489e-62 7.4892e-62 1.88614e-61 4.70386e-61 1.16156e-60 2.8399e-60 6.87393e-60 1.64708e-59 3.90657e-59 9.17095e-59 2.13076e-58 4.89917e-58 1.11465e-57 2.50929e-57 5.58879e-57 1.23142e-56 2.68394e-56 5.78605e-56 1.23366e-55 2.60122e-55 5.42352e-55 1.11808e-54 2.2788e-54 4.59142e-54 9.1443e-54 1.80001e-53 3.50173e-53 6.73174e-53 1.2787e-52 2.39975e-52 4.44911e-52 8.148e-52 1.47386e-51 2.63296e-51 4.64487e-51 8.09101e-51 1.39152e-50 2.3626e-50 3.95972e-50 6.55045e-50 1.06947e-49 1.72314e-49 2.73959e-49 4.29759e-49 6.65125e-49 1.01551e-48 1.52946e-48 2.2721e-48 3.32909e-48 4.81065e-48 6.85547e-48 9.63395e-48 1.33501e-47 1.82417e-47 2.45772e-47 3.26499e-47 4.2767e-47 5.52355e-47 7.03431e-47 8.83354e-47 1.09391e-46 1.33598e-46 1.60927e-46 1.91217e-46 2.24161e-46 2.59304e-46 2.96055e-46 3.33706e-46 3.71469e-46 4.0851e-46 4.44006e-46 4.7719e-46 5.07398e-46 5.34112e-46 5.56991e-46 5.75881e-46 5.9082e-46 6.02027e-46 6.09869e-46 6.14828e-46 6.17462e-46 6.18356e-46 6.18085e-46 6.17177e-46 6.16085e-46 6.15174e-46 6.14709e-46 6.14859e-46 6.15706e-46 6.1726e-46 6.19473e-46 6.22261e-46 6.25518e-46 6.29133e-46 6.32995e-46 6.37007e-46 6.41084e-46 6.45153e-46 6.49153e-46 6.53027e-46 6.56721e-46 6.60176e-46 6.63327e-46 6.66102e-46 6.68424e-46 6.70208e-46 6.71374e-46 6.71846e-46 6.7156e-46 6.70471e-46 6.68557e-46 6.65818e-46 6.62284e-46 6.58006e-46 6.53055e-46 6.47515e-46 6.4148e-46 6.35042e-46 6.28289e-46 6.21298e-46 6.14135e-46 6.06858e-46 5.99513e-46 5.92147e-46 5.84808e-46 5.77557e-46 5.70466e-46 5.63627e-46 5.57151e-46 5.51161e-46 5.4579e-46 5.41168e-46 5.37412e-46 5.34615e-46 5.32837e-46 5.32092e-46 5.3235e-46 5.33532e-46 5.35517e-46 5.38152e-46 5.4126e-46 5.44657e-46 5.48168e-46 5.51636e-46 5.54933e-46 5.57968e-46 5.60689e-46 5.63075e-46 5.65135e-46 5.66894e-46 5.68381e-46 5.69613e-46 5.70589e-46 5.71272e-46 5.71588e-46 5.71419e-46 5.70606e-46 5.68953e-46 5.66234e-46 5.62209e-46 5.56632e-46 5.49266e-46 5.39902e-46 5.28367e-46 5.14537e-46 4.98353e-46 4.79818e-46 4.59011e-46 4.36084e-46 4.11259e-46 3.84824e-46 3.57125e-46 3.28552e-46 2.99526e-46 2.70484e-46 2.41855e-46 2.14053e-46 1.87451e-46 1.62373e-46 1.3908e-46 1.17765e-46 9.85508e-47 8.14869e-47 6.65588e-47 5.36942e-47 4.27739e-47 3.36429e-47 2.61223e-47 2.00209e-47 1.5145e-47 1.13067e-47 8.33009e-48 6.05612e-48 4.34465e-48 3.07554e-48 2.14827e-48 1.48068e-48 1.00702e-48 6.75822e-49 4.47565e-49 2.92499e-49 1.8865e-49 1.20081e-49 7.54398e-50 4.67803e-50 2.86345e-50 1.73025e-50 1.03217e-50 6.07928e-51 3.53544e-51 2.0303e-51 1.15144e-51 6.44935e-52 3.56801e-52 1.94989e-52 1.0527e-52 5.61493e-53 2.95919e-53 1.54109e-53 7.93128e-54 4.03419e-54 2.02807e-54 1.00753e-54 4.94141e-55 2.38079e-55 1.10049e-55 4.29066e-56 0 
0 3.04967e-74 1.07639e-73 3.47335e-73 1.10373e-72 3.47654e-72 1.08604e-71 3.36476e-71 1.03385e-70 3.15012e-70 9.51787e-70 2.85148e-69 8.47022e-69 2.49451e-68 7.28312e-68 2.10797e-67 6.04782e-67 1.71986e-66 4.84757e-66 1.35413e-65 3.74863e-65 1.02834e-64 2.79524e-64 7.52825e-64 2.00877e-63 5.31007e-63 1.3905e-62 3.60673e-62 9.26606e-62 2.35768e-61 5.9409e-61 1.48239e-60 3.66257e-60 8.95954e-60 2.16985e-59 5.20218e-59 1.23457e-58 2.89994e-58 6.74165e-58 1.55101e-57 3.53097e-57 7.95374e-57 1.77259e-56 3.90812e-56 8.52336e-56 1.83865e-55 3.92278e-55 8.27669e-55 1.72682e-54 3.56224e-54 7.2652e-54 1.4648e-53 2.91925e-53 5.75029e-53 1.11941e-52 2.1534e-52 4.09317e-52 7.68683e-52 1.42609e-51 2.61344e-51 4.73047e-51 8.45624e-51 1.49276e-50 2.60193e-50 4.47771e-50 7.60722e-50 1.27575e-49 2.11168e-49 3.44967e-49 5.56125e-49 8.8465e-49 1.38847e-48 2.14997e-48 3.28412e-48 4.94841e-48 7.35423e-48 1.07796e-47 1.55825e-47 2.22131e-47 3.12248e-47 4.32801e-47 5.91503e-47 7.97068e-47 1.059e-46 1.38725e-46 1.79173e-46 2.28173e-46 2.86512e-46 3.54759e-46 4.33181e-46 5.21666e-46 6.19667e-46 7.26161e-46 8.39651e-46 9.58192e-46 1.07947e-45 1.20089e-45 1.31976e-45 1.4334e-45 1.53933e-45 1.63541e-45 1.71999e-45 1.792e-45 1.85098e-45 1.8971e-45 1.93112e-45 1.95427e-45 1.96815e-45 1.97461e-45 1.97556e-45 1.97288e-45 1.96829e-45 1.96326e-45 1.95897e-45 1.95627e-45 1.95569e-45 1.95748e-45 1.96166e-45 1.96807e-45 1.97641e-45 1.98633e-45 1.99746e-45 2.00944e-45 2.02195e-45 2.0347e-45 2.04745e-45 2.06002e-45 2.0722e-45 2.08383e-45 2.09472e-45 2.10465e-45 2.11341e-45 2.12075e-45 2.12639e-45 2.13009e-45 2.13159e-45 2.13071e-45 2.12729e-45 2.12126e-45 2.11263e-45 2.10149e-45 2.088e-45 2.07239e-45 2.05492e-45 2.03589e-45 2.01559e-45 1.9943e-45 1.97226e-45 1.94969e-45 1.92675e-45 1.9036e-45 1.88038e-45 1.85724e-45 1.83437e-45 1.81201e-45 1.79043e-45 1.76999e-45 1.75109e-45 1.73413e-45 1.71953e-45 1.70768e-45 1.69885e-45 1.69325e-45 1.69091e-45 1.69175e-45 1.69551e-45 1.70181e-45 1.71016e-45 1.72e-45 1.73076e-45 1.74187e-45 1.75283e-45 1.76326e-45 1.77285e-45 1.78144e-45 1.78899e-45 1.79551e-45 1.80109e-45 1.80583e-45 1.8098e-45 1.81299e-45 1.81529e-45 1.81648e-45 1.81619e-45 1.81391e-45 1.80903e-45 1.80083e-45 1.78855e-45 1.77141e-45 1.74864e-45 1.71957e-45 1.68363e-45 1.64042e-45 1.58971e-45 1.53151e-45 1.46603e-45 1.39373e-45 1.31529e-45 1.23162e-45 1.14379e-45 1.05304e-45 9.60699e-46 8.68164e-46 7.76817e-46 6.87982e-46 6.02871e-46 5.22538e-46 4.47839e-46 3.79413e-46 3.17668e-46 2.62785e-46 2.14733e-46 1.73293e-46 1.38093e-46 1.08644e-46 8.43771e-47 6.46812e-47 4.89355e-47 3.65367e-47 2.69195e-47 1.95712e-47 1.40399e-47 9.93803e-48 6.94101e-48 4.78334e-48 3.25262e-48 2.18242e-48 1.44497e-48 9.44085e-49 6.08718e-49 3.87343e-49 2.43262e-49 1.50792e-49 9.22648e-50 5.57288e-50 3.32307e-50 1.95637e-50 1.13722e-50 6.52771e-51 3.70026e-51 2.07155e-51 1.14549e-51 6.25682e-52 3.37616e-52 1.79986e-52 9.48067e-53 4.93472e-53 2.53833e-53 1.29041e-53 6.48368e-54 3.21932e-54 1.57806e-54 7.59925e-55 3.51103e-55 1.36843e-55 0 
0 9.41519e-74 3.32395e-73 1.07292e-72 3.4105e-72 1.07459e-71 3.35803e-71 1.04074e-70 3.19887e-70 9.75036e-70 2.94708e-69 8.83251e-69 2.62466e-68 7.73272e-68 2.25858e-67 6.53971e-67 1.87704e-66 5.34012e-66 1.5058e-65 4.20817e-65 1.16547e-64 3.19862e-64 8.69858e-64 2.34385e-63 6.25715e-63 1.65485e-62 4.33559e-62 1.12515e-61 2.89214e-61 7.36274e-61 1.85626e-60 4.63434e-60 1.14565e-59 2.80412e-59 6.79502e-59 1.63004e-58 3.87067e-58 9.09743e-58 2.11622e-57 4.87164e-57 1.10975e-56 2.50137e-56 5.57819e-56 1.23064e-55 2.68571e-55 5.79741e-55 1.23771e-54 2.6132e-54 5.45577e-54 1.12623e-53 2.29853e-53 4.63745e-53 9.24857e-53 1.82303e-52 3.55135e-52 6.8365e-52 1.30038e-51 2.44376e-51 4.53689e-51 8.32002e-51 1.507e-50 2.69576e-50 4.76194e-50 8.30576e-50 1.43029e-49 2.43149e-49 4.08023e-49 6.75797e-49 1.10465e-48 1.78186e-48 2.83607e-48 4.45367e-48 6.89982e-48 1.05448e-47 1.5896e-47 2.36346e-47 3.4657e-47 5.01171e-47 7.14669e-47 1.0049e-46 1.39324e-46 1.90453e-46 2.56686e-46 3.4108e-46 4.46836e-46 5.77139e-46 7.34956e-46 9.22796e-46 1.14245e-45 1.39473e-45 1.67921e-45 1.99404e-45 2.33586e-45 2.69975e-45 3.07936e-45 3.46714e-45 3.85473e-45 4.23336e-45 4.59442e-45 4.92992e-45 5.23306e-45 5.49862e-45 5.72325e-45 5.90563e-45 6.04646e-45 6.14831e-45 6.21531e-45 6.25274e-45 6.26664e-45 6.26326e-45 6.24871e-45 6.22853e-45 6.20747e-45 6.18928e-45 6.17667e-45 6.17131e-45 6.17397e-45 6.18464e-45 6.20274e-45 6.22731e-45 6.25718e-45 6.29111e-45 6.32792e-45 6.36654e-45 6.40606e-45 6.44572e-45 6.48484e-45 6.52284e-45 6.55915e-45 6.59317e-45 6.62426e-45 6.65169e-45 6.67468e-45 6.69238e-45 6.704e-45 6.70877e-45 6.70605e-45 6.6954e-45 6.67658e-45 6.64962e-45 6.61478e-45 6.57259e-45 6.52375e-45 6.46911e-45 6.40959e-45 6.3461e-45 6.27953e-45 6.21062e-45 6.14005e-45 6.06834e-45 5.99596e-45 5.92336e-45 5.85101e-45 5.77949e-45 5.70951e-45 5.64199e-45 5.57802e-45 5.51882e-45 5.46572e-45 5.42001e-45 5.38288e-45 5.35526e-45 5.33774e-45 5.33048e-45 5.33317e-45 5.34503e-45 5.36486e-45 5.39112e-45 5.42205e-45 5.45583e-45 5.4907e-45 5.5251e-45 5.55778e-45 5.58784e-45 5.61478e-45 5.63843e-45 5.65891e-45 5.67649e-45 5.6915e-45 5.70417e-45 5.71452e-45 5.72222e-45 5.72658e-45 5.72646e-45 5.72029e-45 5.70613e-45 5.68176e-45 5.64475e-45 5.59261e-45 5.52294e-45 5.43357e-45 5.32266e-45 5.18887e-45 5.03145e-45 4.85028e-45 4.646e-45 4.41995e-45 4.17421e-45 3.91154e-45 3.63532e-45 3.3494e-45 3.05799e-45 2.76549e-45 2.47629e-45 2.19465e-45 1.92444e-45 1.66907e-45 1.43133e-45 1.21332e-45 1.01639e-45 8.4119e-46 6.87665e-46 5.55168e-46 4.42548e-46 3.48271e-46 2.70544e-46 2.0743e-46 1.56956e-46 1.17199e-46 8.63545e-47 6.27824e-47 4.50371e-47 3.18768e-47 2.22612e-47 1.53389e-47 1.04284e-47 6.99563e-48 4.63063e-48 3.02463e-48 1.9496e-48 1.24017e-48 7.78584e-49 4.82443e-49 2.95074e-49 1.78153e-49 1.06185e-49 6.24855e-50 3.63054e-50 2.08294e-50 1.18014e-50 6.60359e-51 3.64965e-51 1.99245e-51 1.07455e-51 5.72546e-52 3.01422e-52 1.56806e-52 8.06136e-53 4.0959e-53 2.05685e-53 1.02071e-53 5.00066e-54 2.40682e-54 1.11147e-54 4.33043e-55 0 
0 2.88249e-73 1.0179e-72 3.28664e-72 1.04507e-71 3.29393e-71 1.02968e-70 3.19237e-70 9.81569e-70 2.99298e-69 9.04974e-69 2.71328e-68 8.06587e-68 2.3773e-67 6.94646e-67 2.01217e-66 5.77781e-66 1.64448e-65 4.63914e-65 1.29705e-64 3.59389e-64 9.86801e-64 2.68486e-63 7.23794e-63 1.9332e-62 5.1154e-62 1.34088e-61 3.48163e-61 8.9541e-61 2.28075e-60 5.7533e-60 1.43717e-59 3.55484e-59 8.70598e-59 2.1109e-58 5.06682e-58 1.20389e-57 2.8313e-57 6.59021e-57 1.51806e-56 3.46034e-56 7.80464e-56 1.74162e-55 3.84487e-55 8.39654e-55 1.81372e-54 3.87483e-54 8.18666e-54 1.71038e-53 3.53322e-53 7.21605e-53 1.45693e-52 2.90765e-52 5.73552e-52 1.11811e-51 2.15396e-51 4.10001e-51 7.71057e-51 1.43251e-50 2.62889e-50 4.76506e-50 8.52984e-50 1.50781e-49 2.63173e-49 4.53502e-49 7.71468e-49 1.29543e-48 2.14696e-48 3.51159e-48 5.66779e-48 9.02634e-48 1.41826e-47 2.19842e-47 3.36153e-47 5.06986e-47 7.54145e-47 1.10632e-46 1.60046e-46 2.28306e-46 3.21124e-46 4.4534e-46 6.08912e-46 8.20819e-46 1.09084e-45 1.42919e-45 1.84602e-45 2.35076e-45 2.95134e-45 3.65336e-45 4.45922e-45 5.36737e-45 6.37166e-45 7.46102e-45 8.61943e-45 9.82631e-45 1.10573e-44 1.22854e-44 1.34824e-44 1.46208e-44 1.56752e-44 1.66239e-44 1.74506e-44 1.8145e-44 1.87034e-44 1.91284e-44 1.94288e-44 1.96182e-44 1.97141e-44 1.97359e-44 1.97041e-44 1.96382e-44 1.95561e-44 1.94729e-44 1.94005e-44 1.93475e-44 1.9319e-44 1.93174e-44 1.93425e-44 1.93923e-44 1.94635e-44 1.95522e-44 1.96546e-44 1.97666e-44 1.98848e-44 2.00062e-44 2.01284e-44 2.02492e-44 2.03667e-44 2.04791e-44 2.05846e-44 2.06811e-44 2.07662e-44 2.08377e-44 2.08928e-44 2.0929e-44 2.0944e-44 2.09357e-44 2.09028e-44 2.08446e-44 2.0761e-44 2.06529e-44 2.05221e-44 2.03706e-44 2.0201e-44 2.00164e-44 1.98195e-44 1.9613e-44 1.93993e-44 1.91805e-44 1.89582e-44 1.87337e-44 1.85086e-44 1.82842e-44 1.80623e-44 1.78452e-44 1.76356e-44 1.7437e-44 1.72532e-44 1.70883e-44 1.69463e-44 1.6831e-44 1.67452e-44 1.66909e-44 1.66685e-44 1.66771e-44 1.67142e-44 1.67762e-44 1.6858e-44 1.69545e-44 1.70597e-44 1.71682e-44 1.72753e-44 1.73769e-44 1.74704e-44 1.75541e-44 1.76277e-44 1.76915e-44 1.77464e-44 1.77936e-44 1.78337e-44 1.78671e-44 1.78926e-44 1.79082e-44 1.79105e-44 1.78945e-44 1.78543e-44 1.77828e-44 1.76726e-44 1.75159e-44 1.7305e-44 1.70329e-44 1.6694e-44 1.62837e-44 1.57994e-44 1.52405e-44 1.46088e-44 1.39081e-44 1.31447e-44 1.23271e-44 1.14655e-44 1.0572e-44 9.65976e-45 8.74249e-45 7.83415e-45 6.94815e-45 6.09693e-45 5.29138e-45 4.54051e-45 3.85116e-45 3.22783e-45 2.67273e-45 2.18589e-45 1.76541e-45 1.40776e-45 1.10818e-45 8.61062e-46 6.60315e-46 4.99713e-46 3.73171e-46 2.74972e-46 1.99915e-46 1.43404e-46 1.01492e-46 7.08685e-47 4.88237e-47 3.31872e-47 2.22579e-47 1.47294e-47 9.61818e-48 6.19768e-48 3.94109e-48 2.47332e-48 1.53198e-48 9.3661e-49 5.65241e-49 3.36752e-49 1.98071e-49 1.15028e-49 6.59623e-50 3.73535e-50 2.08906e-50 1.15397e-50 6.29645e-51 3.3939e-51 1.80735e-51 9.50965e-52 4.94432e-52 2.54043e-52 1.29004e-52 6.47452e-53 3.21117e-53 1.57232e-53 7.56344e-54 3.4911e-54 1.35967e-54 0 
0 8.75078e-73 3.09101e-72 9.98349e-72 3.17555e-71 1.00124e-70 3.13095e-70 9.71047e-70 2.9868e-69 9.11068e-69 2.75581e-68 8.26562e-68 2.45814e-67 7.24793e-67 2.11872e-66 6.13989e-66 1.76379e-65 5.02233e-65 1.41745e-64 3.96488e-64 1.09911e-63 3.01935e-63 8.21899e-63 2.2168e-62 5.92393e-62 1.56833e-61 4.11318e-61 1.06857e-60 2.74966e-60 7.00771e-60 1.76873e-59 4.42083e-59 1.09413e-58 2.68118e-58 6.50486e-58 1.56233e-57 3.71445e-57 8.74117e-57 2.03592e-56 4.69282e-56 1.07041e-55 2.41588e-55 5.39472e-55 1.19178e-54 2.60444e-54 5.62973e-54 1.20358e-53 2.54472e-53 5.32034e-53 1.09985e-52 2.2479e-52 4.54186e-52 9.07107e-52 1.79065e-51 3.49337e-51 6.73472e-51 1.28289e-50 2.41443e-50 4.48896e-50 8.24406e-50 1.49539e-49 2.67883e-49 4.73875e-49 8.27689e-49 1.42728e-48 2.42968e-48 4.08263e-48 6.77077e-48 1.10815e-47 1.78971e-47 2.85197e-47 4.4838e-47 6.95415e-47 1.0639e-46 1.60539e-46 2.38917e-46 3.50643e-46 5.07464e-46 7.24166e-46 1.01891e-45 1.41345e-45 1.93307e-45 2.60631e-45 3.46419e-45 4.53912e-45 5.86321e-45 7.46619e-45 9.37297e-45 1.16009e-44 1.4157e-44 1.70357e-44 2.02166e-44 2.36637e-44 2.7325e-44 3.11344e-44 3.50135e-44 3.88759e-44 4.2632e-44 4.6194e-44 4.94814e-44 5.24266e-44 5.49783e-44 5.71052e-44 5.87968e-44 6.00637e-44 6.09351e-44 6.14559e-44 6.16828e-44 6.16789e-44 6.15095e-44 6.12376e-44 6.09199e-44 6.06044e-44 6.03288e-44 6.01196e-44 5.9993e-44 5.99555e-44 6.00062e-44 6.01381e-44 6.03405e-44 6.06009e-44 6.0906e-44 6.12433e-44 6.16017e-44 6.19715e-44 6.23447e-44 6.27145e-44 6.30748e-44 6.34201e-44 6.37443e-44 6.40411e-44 6.43035e-44 6.45237e-44 6.46938e-44 6.48058e-44 6.48525e-44 6.48277e-44 6.47269e-44 6.45479e-44 6.4291e-44 6.39587e-44 6.35561e-44 6.30899e-44 6.25684e-44 6.20003e-44 6.13946e-44 6.07595e-44 6.01024e-44 5.94294e-44 5.87458e-44 5.80557e-44 5.73634e-44 5.66732e-44 5.59906e-44 5.53224e-44 5.46773e-44 5.40657e-44 5.34995e-44 5.29914e-44 5.25541e-44 5.21989e-44 5.19349e-44 5.17679e-44 5.16995e-44 5.17266e-44 5.18419e-44 5.20336e-44 5.2287e-44 5.2585e-44 5.29101e-44 5.32453e-44 5.35757e-44 5.38892e-44 5.41774e-44 5.44356e-44 5.46625e-44 5.48596e-44 5.50299e-44 5.51769e-44 5.53034e-44 5.54099e-44 5.54938e-44 5.55488e-44 5.55642e-44 5.55254e-44 5.54138e-44 5.52078e-44 5.48841e-44 5.44184e-44 5.37867e-44 5.29675e-44 5.19418e-44 5.06954e-44 4.92195e-44 4.75113e-44 4.5575e-44 4.3422e-44 4.1071e-44 3.85472e-44 3.58822e-44 3.3113e-44 3.02802e-44 2.74268e-44 2.45963e-44 2.1831e-44 1.91703e-44 1.66489e-44 1.42955e-44 1.21324e-44 1.01743e-44 8.42882e-45 6.89663e-45 5.5722e-45 4.44489e-45 3.50003e-45 2.7202e-45 2.08642e-45 1.57918e-45 1.1794e-45 8.69088e-46 6.31858e-46 4.53229e-46 3.20739e-46 2.23934e-46 1.54251e-46 1.04829e-46 7.02896e-47 4.65026e-47 3.03568e-47 1.95546e-47 1.24303e-47 7.798e-48 4.82813e-48 2.95054e-48 1.77985e-48 1.05988e-48 6.23103e-49 3.61682e-49 2.07298e-49 1.17329e-49 6.5583e-50 3.62073e-50 1.9745e-50 1.06369e-50 5.66126e-51 2.97705e-51 1.54695e-51 7.94375e-52 4.03149e-52 2.02217e-52 1.00235e-52 4.90506e-53 2.3582e-53 1.08793e-53 4.23557e-54 0 