# vtk DataFile Version 3.0
Gray-Scott Simulation Output
ASCII
DATASET STRUCTURED_POINTS
DIMENSIONS 256 256 1
SPACING 1.0 1.0 1.0
ORIGIN 0 0 0
POINT_DATA 65536
SCALARS u double
LOOKUP_TABLE default
0 0 0 0 0 0 0 0 0 0 0 0 0 0 0 0 0 0 0 0 0 0 0 0 0 0 0 0 0 0 0 0 0 0 0 0 0 0 0 0 0 0 0 0 0 0 0 0 0 0 0 0 0 0 0 0 0 0 0 0 0 0 0 0 0 0 0 0 0 0 0 0 0 0 0 0 0 0 0 0 0 0 0 0 0 0 0 0 0 0 0 0 0 0 0 0 0 0 0 0 0 0 0 0 0 0 0 0 0 0 0 0 0 0 0 0 0 0 0 0 0 0 0 0 0 0 0 0 0 0 0 0 0 0 0 0 0 0 0 0 0 0 0 0 0 0 0 0 0 0 0 0 0 0 0 0 0 0 0 0 0 0 0 0 0 0 0 0 0 0 0 0 0 0 0 0 0 0 0 0 0 0 0 0 0 0 0 0 0 0 0 0 0 0 0 0 0 0 0 0 0 0 0 0 0 0 0 0 0 0 0 0 0 0 0 0 0 0 0 0 0 0 0 0 0 0 0 0 0 0 0 0 0 0 0 0 0 0 0 0 0 0 0 0 0 0 0 0 0 0 0 0 0 0 0 0 
0 6.58283e-76 2.26869e-75 7.11902e-75 2.19831e-74 6.72841e-74 2.04258e-73 6.15032e-73 1.83673e-72 5.44005e-72 1.59787e-71 4.65416e-71 1.34423e-70 3.84962e-70 1.09306e-69 3.07702e-69 8.58716e-69 2.37561e-68 6.5145e-68 1.77068e-67 4.7701e-67 1.27354e-66 3.36952e-66 8.83421e-66 2.295e-65 5.90719e-65 1.50639e-64 3.80557e-64 9.52358e-64 2.36073e-63 5.79602e-63 1.40935e-62 3.39375e-62 8.0925e-62 1.91072e-61 4.4667e-61 1.03376e-60 2.36847e-60 5.37143e-60 1.20575e-59 2.67875e-59 5.88954e-59 1.28136e-58 2.75843e-58 5.87518e-58 1.23797e-57 2.58046e-57 5.32034e-57 1.08493e-56 2.18801e-56 4.36355e-56 8.60474e-56 1.67766e-55 3.2337e-55 6.16152e-55 1.16045e-54 2.16012e-54 3.97379e-54 7.22378e-54 1.29754e-53 2.30266e-53 4.03698e-53 6.99135e-53 1.19592e-52 2.02044e-52 3.37094e-52 5.55367e-52 9.03432e-52 1.45098e-51 2.30061e-51 3.60085e-51 5.56306e-51 8.48274e-51 1.27656e-50 1.89584e-50 2.77836e-50 4.01769e-50 5.73246e-50 8.06979e-50 1.12079e-49 1.5357e-49 2.07589e-49 2.76825e-49 3.64174e-49 4.72625e-49 6.05111e-49 7.64323e-49 9.52496e-49 1.17117e-48 1.42097e-48 1.70137e-48 2.01059e-48 2.34543e-48 2.70133e-48 3.07245e-48 3.45189e-48 3.83201e-48 4.20479e-48 4.56234e-48 4.89731e-48 5.20334e-48 5.47543e-48 5.71024e-48 5.9062e-48 6.06356e-48 6.18421e-48 6.27154e-48 6.33001e-48 6.36484e-48 6.38157e-48 6.38571e-48 6.38236e-48 6.37601e-48 6.3703e-48 6.36799e-48 6.37094e-48 6.38015e-48 6.39594e-48 6.41803e-48 6.44576e-48 6.47821e-48 6.51436e-48 6.55317e-48 6.59366e-48 6.63497e-48 6.67631e-48 6.717e-48 6.75639e-48 6.79388e-48 6.82882e-48 6.86053e-48 6.88828e-48 6.91128e-48 6.92874e-48 6.93987e-48 6.94397e-48 6.94044e-48 6.92888e-48 6.90907e-48 6.88105e-48 6.84507e-48 6.80163e-48 6.75139e-48 6.69516e-48 6.6338e-48 6.56821e-48 6.49924e-48 6.42768e-48 6.35423e-48 6.2795e-48 6.20405e-48 6.12842e-48 6.0532e-48 5.97906e-48 5.9068e-48 5.83736e-48 5.77184e-48 5.71145e-48 5.65742e-48 5.61099e-48 5.57321e-48 5.54495e-48 5.52669e-48 5.51856e-48 5.52024e-48 5.53097e-48 5.5496e-48 5.57469e-48 5.60459e-48 5.63756e-48 5.67195e-48 5.70625e-48 5.73922e-48 5.76994e-48 5.79781e-48 5.82254e-48 5.8441e-48 5.86258e-48 5.87811e-48 5.89073e-48 5.90029e-48 5.90632e-48 5.90801e-48 5.90416e-48 5.89317e-48 5.87312e-48 5.84183e-48 5.79696e-48 5.73615e-48 5.65714e-48 5.55793e-48 5.43688e-48 5.29287e-48 5.12535e-48 4.93444e-48 4.72097e-48 4.48648e-48 4.2332e-48 3.96401e-48 3.68234e-48 3.39204e-48 3.09726e-48 2.80229e-48 2.51138e-48 2.22856e-48 1.95755e-48 1.70154e-48 1.46314e-48 1.24432e-48 1.04633e-48 8.69766e-49 7.14559e-49 5.8009e-49 4.65266e-49 3.6863e-49 2.88473e-49 2.22945e-49 1.70147e-49 1.28218e-49 9.53987e-50 7.00782e-50 5.08221e-50 3.63864e-50 2.57178e-50 1.79447e-50 1.23608e-50 8.40563e-51 5.64308e-51 3.74021e-51 2.4475e-51 1.58131e-51 1.00878e-51 6.35455e-52 3.95279e-52 2.42818e-52 1.47313e-52 8.82705e-53 5.22435e-53 3.05438e-53 1.76409e-53 1.00659e-53 5.67494e-54 3.16136e-54 1.74031e-54 9.46788e-55 5.09085e-55 2.70566e-55 1.42146e-55 7.38253e-56 3.79046e-56 1.92357e-56 9.63703e-57 4.7406e-57 2.23301e-57 8.8293e-58 0 
0 2.26517e-75 7.80817e-75 2.45075e-74 7.56968e-74 2.31747e-73 7.03713e-73 2.11949e-72 6.33141e-72 1.87577e-71 5.51117e-71 1.60572e-70 4.63911e-70 1.32895e-69 3.77462e-69 1.06291e-68 2.96728e-68 8.2116e-68 2.25258e-67 6.12477e-67 1.65055e-66 4.40827e-66 1.16676e-65 3.06015e-65 7.95281e-65 2.0478e-64 5.22411e-64 1.32028e-63 3.30539e-63 8.19684e-63 2.01331e-62 4.89758e-62 1.17986e-61 2.81463e-61 6.64855e-61 1.55493e-60 3.60034e-60 8.25255e-60 1.87246e-59 4.20518e-59 9.34687e-59 2.05601e-58 4.47532e-58 9.63893e-58 2.05401e-57 4.33022e-57 9.03053e-57 1.86284e-56 3.80067e-56 7.66882e-56 1.53018e-55 3.01901e-55 5.88918e-55 1.13573e-54 2.16515e-54 4.07991e-54 7.59847e-54 1.39854e-53 2.54364e-53 4.5712e-53 8.11631e-53 1.42364e-52 2.46671e-52 4.22153e-52 7.1354e-52 1.19104e-51 1.96314e-51 3.1949e-51 5.13346e-51 8.14276e-51 1.27499e-50 1.97052e-50 3.0058e-50 4.52497e-50 6.72226e-50 9.85444e-50 1.42541e-49 2.03429e-49 2.86438e-49 3.97901e-49 5.45293e-49 7.37198e-49 9.83172e-49 1.29349e-48 1.67873e-48 2.1493e-48 2.71468e-48 3.38273e-48 4.15882e-48 5.04499e-48 6.03927e-48 7.13504e-48 8.32079e-48 9.58009e-48 1.0892e-47 1.22318e-47 1.35721e-47 1.48846e-47 1.6141e-47 1.73154e-47 1.83854e-47 1.93334e-47 2.01478e-47 2.08235e-47 2.13616e-47 2.17694e-47 2.20592e-47 2.22472e-47 2.23521e-47 2.23939e-47 2.23923e-47 2.23655e-47 2.23293e-47 2.22968e-47 2.22776e-47 2.22782e-47 2.23021e-47 2.23502e-47 2.24215e-47 2.25134e-47 2.26227e-47 2.27457e-47 2.28785e-47 2.30176e-47 2.316e-47 2.33028e-47 2.34436e-47 2.358e-47 2.371e-47 2.38313e-47 2.39414e-47 2.40378e-47 2.41178e-47 2.41785e-47 2.42173e-47 2.42317e-47 2.42196e-47 2.41795e-47 2.41108e-47 2.40136e-47 2.38887e-47 2.37379e-47 2.35634e-47 2.33681e-47 2.31551e-47 2.29273e-47 2.26879e-47 2.24394e-47 2.21844e-47 2.1925e-47 2.16631e-47 2.14005e-47 2.11393e-47 2.08818e-47 2.06309e-47 2.03896e-47 2.0162e-47 1.99521e-47 1.97643e-47 1.96029e-47 1.94717e-47 1.93735e-47 1.93101e-47 1.9282e-47 1.9288e-47 1.93256e-47 1.93906e-47 1.94781e-47 1.95823e-47 1.96971e-47 1.98169e-47 1.99363e-47 2.0051e-47 2.01579e-47 2.02549e-47 2.0341e-47 2.04161e-47 2.04807e-47 2.05352e-47 2.05798e-47 2.06141e-47 2.06364e-47 2.06441e-47 2.06329e-47 2.05973e-47 2.05307e-47 2.04254e-47 2.02732e-47 2.00659e-47 1.97955e-47 1.94549e-47 1.90383e-47 1.85415e-47 1.79625e-47 1.73015e-47 1.65612e-47 1.57467e-47 1.48656e-47 1.39279e-47 1.29454e-47 1.19315e-47 1.09007e-47 9.86805e-48 8.84841e-48 7.8561e-48 6.90423e-48 6.0042e-48 5.16536e-48 4.39475e-48 3.69699e-48 3.07427e-48 2.52653e-48 2.05171e-48 1.64603e-48 1.30446e-48 1.02102e-48 7.8922e-49 6.02396e-49 4.53993e-49 3.3781e-49 2.48158e-49 1.7997e-49 1.28847e-49 9.10639e-50 6.35349e-50 4.37599e-50 2.97537e-50 1.99719e-50 1.32349e-50 8.65885e-51 5.59316e-51 3.56724e-51 2.24651e-51 1.39703e-51 8.5794e-52 5.20338e-52 3.11689e-52 1.84414e-52 1.07779e-52 6.22271e-53 3.54942e-53 2.00033e-53 1.11391e-53 6.12964e-54 3.33344e-54 1.79167e-54 9.51846e-55 4.99865e-55 2.59506e-55 1.33185e-55 6.75607e-56 3.3834e-56 1.66369e-56 7.83388e-57 3.09671e-57 0 
0 7.0948e-75 2.44621e-74 7.68014e-74 2.3729e-73 7.26691e-73 2.20734e-72 6.65038e-72 1.98728e-71 5.8896e-71 1.73102e-70 5.04523e-70 1.45815e-69 4.17866e-69 1.18731e-68 3.34467e-68 9.34077e-68 2.58598e-67 7.09666e-67 1.93038e-66 5.20432e-66 1.39056e-65 3.68209e-65 9.66156e-65 2.51201e-64 6.47123e-64 1.65164e-63 4.17616e-63 1.04603e-62 2.59526e-62 6.37765e-62 1.55222e-61 3.74131e-61 8.92982e-61 2.11046e-60 4.9385e-60 1.1441e-59 2.6239e-59 5.95683e-59 1.33854e-58 2.97688e-58 6.55194e-58 1.427e-57 3.07527e-57 6.55715e-57 1.38319e-56 2.88634e-56 5.95764e-56 1.21625e-55 2.45561e-55 4.90277e-55 9.67903e-55 1.88926e-54 3.64571e-54 6.95446e-54 1.31128e-53 2.44366e-53 4.50046e-53 8.19038e-53 1.4728e-52 2.61657e-52 4.59234e-52 7.96171e-52 1.36336e-51 2.30572e-51 3.85084e-51 6.35064e-51 1.03408e-50 1.66239e-50 2.63822e-50 4.13289e-50 6.39039e-50 9.75209e-50 1.4687e-49 2.18274e-49 3.20092e-49 4.63155e-49 6.61197e-49 9.3125e-49 1.29394e-48 1.7736e-48 2.39817e-48 3.19873e-48 4.20867e-48 5.46238e-48 6.99349e-48 8.8327e-48 1.10052e-47 1.35281e-47 1.64074e-47 1.9636e-47 2.31917e-47 2.70361e-47 3.11149e-47 3.53591e-47 3.96877e-47 4.40111e-47 4.82363e-47 5.22719e-47 5.60335e-47 5.94487e-47 6.24615e-47 6.50354e-47 6.71549e-47 6.88253e-47 7.00716e-47 7.09354e-47 7.14705e-47 7.17394e-47 7.18074e-47 7.17391e-47 7.15941e-47 7.14241e-47 7.12711e-47 7.11662e-47 7.11302e-47 7.11739e-47 7.12999e-47 7.15042e-47 7.17785e-47 7.21114e-47 7.24904e-47 7.29033e-47 7.33382e-47 7.37848e-47 7.42339e-47 7.46776e-47 7.51083e-47 7.55191e-47 7.59026e-47 7.62512e-47 7.65567e-47 7.68103e-47 7.70032e-47 7.71266e-47 7.71727e-47 7.71349e-47 7.70085e-47 7.67914e-47 7.64837e-47 7.60884e-47 7.56109e-47 7.50585e-47 7.44402e-47 7.37656e-47 7.30446e-47 7.22865e-47 7.15002e-47 7.0693e-47 6.98719e-47 6.90428e-47 6.82116e-47 6.73847e-47 6.65694e-47 6.57745e-47 6.50104e-47 6.42891e-47 6.36239e-47 6.30289e-47 6.25173e-47 6.21013e-47 6.17903e-47 6.15898e-47 6.15013e-47 6.15211e-47 6.16409e-47 6.1848e-47 6.21264e-47 6.24577e-47 6.28228e-47 6.32032e-47 6.35823e-47 6.39465e-47 6.42857e-47 6.45935e-47 6.4867e-47 6.51061e-47 6.53121e-47 6.54868e-47 6.56312e-47 6.57439e-47 6.58202e-47 6.58514e-47 6.58244e-47 6.57219e-47 6.55226e-47 6.52022e-47 6.47347e-47 6.40935e-47 6.3253e-47 6.21901e-47 6.08859e-47 5.93264e-47 5.75044e-47 5.54196e-47 5.30799e-47 5.05008e-47 4.7706e-47 4.47264e-47 4.15992e-47 3.83671e-47 3.5076e-47 3.17742e-47 2.85097e-47 2.53285e-47 2.22732e-47 1.9381e-47 1.66826e-47 1.42011e-47 1.19522e-47 9.94338e-48 8.17511e-48 6.64113e-48 5.32974e-48 4.22493e-48 3.30771e-48 2.55728e-48 1.95222e-48 1.47146e-48 1.09498e-48 8.04411e-49 5.83378e-49 4.17648e-49 2.95157e-49 2.0591e-49 1.41802e-49 9.64002e-50 6.46953e-50 4.28627e-50 2.80359e-50 1.81049e-50 1.15437e-50 7.2675e-51 4.51794e-51 2.77357e-51 1.68154e-51 1.00688e-51 5.95495e-52 3.4789e-52 2.00771e-52 1.1447e-52 6.44827e-53 3.58917e-53 1.97414e-53 1.07308e-53 5.7649e-54 3.06121e-54 1.60683e-54 8.33779e-55 4.27708e-55 2.16856e-55 1.08548e-55 5.33502e-56 2.51106e-56 9.92303e-57 0 
0 2.18659e-74 7.54105e-74 2.36831e-73 7.31959e-73 2.24233e-72 6.81341e-72 2.05348e-71 6.13839e-71 1.81985e-70 5.35067e-70 1.56009e-69 4.5106e-69 1.29312e-68 3.67566e-68 1.03586e-67 2.89407e-67 8.01555e-67 2.20063e-66 5.98859e-66 1.61525e-65 4.31778e-65 1.14384e-64 3.00276e-64 7.8109e-64 2.01316e-63 5.14067e-63 1.30047e-62 3.25901e-62 8.09e-62 1.9891e-61 4.84374e-61 1.16812e-60 2.78963e-60 6.59665e-60 1.5445e-59 3.58017e-59 8.21564e-59 1.86623e-58 4.19603e-58 9.3375e-58 2.05639e-57 4.48151e-57 9.66396e-57 2.06186e-56 4.35213e-56 9.0875e-56 1.87694e-55 3.83425e-55 7.74636e-55 1.54762e-54 3.0573e-54 5.9715e-54 1.15308e-53 2.20103e-53 4.15283e-53 7.74414e-53 1.42716e-52 2.59897e-52 4.6765e-52 8.31359e-52 1.46004e-51 2.53285e-51 4.33991e-51 7.34411e-51 1.22728e-50 2.02516e-50 3.29947e-50 5.30711e-50 8.42688e-50 1.32078e-49 2.04323e-49 3.11955e-49 4.70022e-49 6.98823e-49 1.0252e-48 1.48393e-48 2.11914e-48 2.98553e-48 4.14933e-48 5.6887e-48 7.69332e-48 1.02629e-47 1.35044e-47 1.7528e-47 2.2441e-47 2.83413e-47 3.53085e-47 4.33958e-47 5.26212e-47 6.29592e-47 7.43359e-47 8.66255e-47 9.96505e-47 1.13187e-46 1.26972e-46 1.40717e-46 1.54121e-46 1.66893e-46 1.78761e-46 1.89495e-46 1.9892e-46 2.06922e-46 2.13456e-46 2.18544e-46 2.22271e-46 2.24776e-46 2.26236e-46 2.26854e-46 2.26843e-46 2.26412e-46 2.25754e-46 2.25033e-46 2.24384e-46 2.23906e-46 2.23664e-46 2.23691e-46 2.23993e-46 2.24557e-46 2.25354e-46 2.26347e-46 2.27494e-46 2.28754e-46 2.30091e-46 2.31468e-46 2.32858e-46 2.34234e-46 2.35572e-46 2.3685e-46 2.38044e-46 2.3913e-46 2.40083e-46 2.40875e-46 2.41478e-46 2.41864e-46 2.4201e-46 2.41894e-46 2.41501e-46 2.40826e-46 2.39867e-46 2.38636e-46 2.37147e-46 2.35426e-46 2.33499e-46 2.31396e-46 2.29149e-46 2.26787e-46 2.24336e-46 2.21822e-46 2.19263e-46 2.1668e-46 2.1409e-46 2.11513e-46 2.08971e-46 2.06493e-46 2.0411e-46 2.0186e-46 1.99785e-46 1.97928e-46 1.96332e-46 1.95034e-46 1.94064e-46 1.9344e-46 1.93166e-46 1.9323e-46 1.93607e-46 1.94256e-46 1.95128e-46 1.96166e-46 1.97308e-46 1.98498e-46 1.99683e-46 2.00821e-46 2.01881e-46 2.02843e-46 2.03699e-46 2.04447e-46 2.05095e-46 2.05647e-46 2.06108e-46 2.06473e-46 2.06729e-46 2.0685e-46 2.06795e-46 2.0651e-46 2.05928e-46 2.04974e-46 2.03566e-46 2.0162e-46 1.99054e-46 1.95795e-46 1.91782e-46 1.86969e-46 1.8133e-46 1.74862e-46 1.67586e-46 1.5955e-46 1.50824e-46 1.41504e-46 1.31705e-46 1.21559e-46 1.11212e-46 1.00815e-46 9.05195e-47 8.04734e-47 7.08122e-47 6.16554e-47 5.31021e-47 4.52283e-47 3.80852e-47 3.16991e-47 2.60731e-47 2.11889e-47 1.70106e-47 1.34884e-47 1.05628e-47 8.16803e-48 6.2365e-48 4.70123e-48 3.49867e-48 2.57036e-48 1.86409e-48 1.33447e-48 9.43021e-49 6.57805e-49 4.52942e-49 3.07867e-49 2.06571e-49 1.36828e-49 8.94743e-50 5.7764e-50 3.68191e-50 2.31723e-50 1.44004e-50 8.83712e-51 5.35564e-51 3.20557e-51 1.89506e-51 1.10662e-51 6.38357e-52 3.63792e-52 2.04834e-52 1.13958e-52 6.26497e-53 3.40375e-53 1.82768e-53 9.7002e-54 5.08903e-54 2.63933e-54 1.35321e-54 6.85751e-55 3.43077e-55 1.68536e-55 7.929e-56 3.1323e-56 0 
0 6.67935e-74 2.30415e-73 7.23856e-73 2.23791e-72 6.85806e-72 2.08457e-71 6.28482e-71 1.87937e-70 5.57382e-70 1.63941e-69 4.78184e-69 1.38309e-68 3.96667e-68 1.12797e-67 3.18012e-67 8.88864e-67 2.4629e-66 6.76474e-66 1.84172e-65 4.96975e-65 1.3291e-64 3.52263e-64 9.25193e-64 2.40783e-63 6.20896e-63 1.58629e-62 4.015e-62 1.0067e-61 2.50031e-61 6.15089e-61 1.49865e-60 3.61618e-60 8.64081e-60 2.04447e-59 4.7896e-59 1.1109e-58 2.55077e-58 5.79773e-58 1.30437e-57 2.90443e-57 6.40042e-57 1.39574e-56 3.01172e-56 6.42985e-56 1.35808e-55 2.83763e-55 5.86475e-55 1.19886e-54 2.4237e-54 4.8455e-54 9.57873e-54 1.87218e-53 3.61759e-53 6.91008e-53 1.30466e-52 2.43456e-52 4.48967e-52 8.18156e-52 1.47315e-51 2.62061e-51 4.60536e-51 7.99447e-51 1.37069e-50 2.32098e-50 3.88102e-50 6.408e-50 1.04463e-49 1.68122e-49 2.671e-49 4.18861e-49 6.48303e-49 9.90291e-49 1.49276e-48 2.22038e-48 3.25871e-48 4.7186e-48 6.74071e-48 9.49946e-48 1.3206e-47 1.81095e-47 2.44956e-47 3.26818e-47 4.30085e-47 5.58253e-47 7.1473e-47 9.02603e-47 1.12438e-46 1.38169e-46 1.67506e-46 2.0036e-46 2.36487e-46 2.75475e-46 3.16752e-46 3.59593e-46 4.03154e-46 4.46508e-46 4.88698e-46 5.28788e-46 5.65923e-46 5.99376e-46 6.28596e-46 6.53236e-46 6.73167e-46 6.88479e-46 6.9946e-46 7.06563e-46 7.10371e-46 7.1154e-46 7.10759e-46 7.08698e-46 7.0597e-46 7.03105e-46 7.00526e-46 6.98546e-46 6.97365e-46 6.97085e-46 6.9772e-46 6.99221e-46 7.01492e-46 7.04409e-46 7.07838e-46 7.11646e-46 7.15711e-46 7.19921e-46 7.24182e-46 7.2841e-46 7.32529e-46 7.36468e-46 7.40153e-46 7.4351e-46 7.46456e-46 7.48907e-46 7.50775e-46 7.51976e-46 7.52431e-46 7.52078e-46 7.5087e-46 7.48785e-46 7.45827e-46 7.42023e-46 7.37425e-46 7.32106e-46 7.26151e-46 7.19655e-46 7.12712e-46 7.05415e-46 6.97846e-46 6.90079e-46 6.82177e-46 6.74198e-46 6.66197e-46 6.58236e-46 6.50383e-46 6.42723e-46 6.35356e-46 6.28399e-46 6.21982e-46 6.16239e-46 6.11302e-46 6.07288e-46 6.04289e-46 6.02362e-46 6.01518e-46 6.01725e-46 6.029e-46 6.0492e-46 6.07629e-46 6.10848e-46 6.14393e-46 6.18082e-46 6.21756e-46 6.25282e-46 6.28566e-46 6.31546e-46 6.34199e-46 6.36524e-46 6.38542e-46 6.40273e-46 6.41731e-46 6.42906e-46 6.4376e-46 6.4421e-46 6.44135e-46 6.43367e-46 6.41701e-46 6.38902e-46 6.34714e-46 6.28875e-46 6.21129e-46 6.11242e-46 5.99018e-46 5.84307e-46 5.67022e-46 5.47144e-46 5.24731e-46 4.99918e-46 4.72919e-46 4.44022e-46 4.13583e-46 3.82011e-46 3.49755e-46 3.17291e-46 2.85095e-46 2.53632e-46 2.23333e-46 1.94579e-46 1.67687e-46 1.42904e-46 1.20398e-46 1.00259e-46 8.2501e-47 6.70727e-47 5.38653e-47 4.27251e-47 3.34665e-47 2.58846e-47 1.97669e-47 1.49026e-47 1.10914e-47 8.14881e-48 5.90971e-48 4.23051e-48 2.9893e-48 2.08495e-48 1.43541e-48 9.75481e-49 6.54386e-49 4.33347e-49 2.83297e-49 1.82841e-49 1.16506e-49 7.32991e-50 4.55349e-50 2.79329e-50 1.69216e-50 1.0124e-50 5.9825e-51 3.49191e-51 2.01339e-51 1.14686e-51 6.4543e-52 3.58904e-52 1.97212e-52 1.0709e-52 5.74735e-53 3.04874e-53 1.59862e-53 8.28657e-54 4.24635e-54 2.15072e-54 1.07542e-54 5.28029e-55 2.48305e-55 9.80579e-56 0 
0 2.02362e-73 6.98267e-73 2.19433e-72 6.78637e-72 2.08039e-71 6.32575e-71 1.90785e-70 5.70722e-70 1.69327e-69 4.98229e-69 1.4538e-68 4.20661e-68 1.20694e-67 3.43351e-67 9.6843e-67 2.70799e-66 7.50671e-66 2.06276e-65 5.61849e-65 1.51682e-64 4.05849e-64 1.07618e-63 2.8279e-63 7.36334e-63 1.89972e-62 4.856e-62 1.22974e-61 3.08504e-61 7.66642e-61 1.88703e-60 4.6003e-60 1.11067e-59 2.65548e-59 6.28675e-59 1.47368e-58 3.42013e-58 7.85792e-58 1.78717e-57 4.0233e-57 8.96443e-57 1.97675e-56 4.31351e-56 9.31382e-56 1.98978e-55 4.20555e-55 8.7932e-55 1.8186e-54 3.72013e-54 7.52608e-54 1.50567e-53 2.97854e-53 5.82571e-53 1.12649e-52 2.15325e-52 4.06831e-52 7.59701e-52 1.40198e-51 2.55662e-51 4.60655e-51 8.20032e-51 1.44207e-50 2.50499e-50 4.29777e-50 7.28213e-50 1.21846e-49 2.01307e-49 3.28371e-49 5.28793e-49 8.40589e-49 1.31893e-48 2.04249e-48 3.12152e-48 4.70762e-48 7.00545e-48 1.02858e-47 1.48996e-47 2.12922e-47 3.0016e-47 4.17395e-47 5.72514e-47 7.74557e-47 1.03356e-46 1.36029e-46 1.76577e-46 2.26072e-46 2.85482e-46 3.5559e-46 4.36898e-46 5.29547e-46 6.33233e-46 7.47155e-46 8.69985e-46 9.99874e-46 1.1345e-45 1.27117e-45 1.40693e-45 1.53875e-45 1.66365e-45 1.77895e-45 1.88236e-45 1.9722e-45 2.04739e-45 2.10758e-45 2.15312e-45 2.18496e-45 2.2046e-45 2.21392e-45 2.21504e-45 2.21016e-45 2.20142e-45 2.19076e-45 2.17987e-45 2.17007e-45 2.16234e-45 2.15729e-45 2.15524e-45 2.1562e-45 2.16e-45 2.16633e-45 2.17478e-45 2.18492e-45 2.19631e-45 2.20855e-45 2.2213e-45 2.23426e-45 2.24714e-45 2.25971e-45 2.27176e-45 2.28304e-45 2.29332e-45 2.30236e-45 2.30988e-45 2.31563e-45 2.31932e-45 2.32074e-45 2.31967e-45 2.31599e-45 2.30961e-45 2.30055e-45 2.28889e-45 2.2748e-45 2.2585e-45 2.24025e-45 2.22034e-45 2.19907e-45 2.17671e-45 2.15352e-45 2.12972e-45 2.10551e-45 2.08107e-45 2.05655e-45 2.03216e-45 2.00809e-45 1.9846e-45 1.96201e-45 1.94067e-45 1.92099e-45 1.90337e-45 1.88822e-45 1.87591e-45 1.86671e-45 1.86081e-45 1.85824e-45 1.85889e-45 1.86253e-45 1.86876e-45 1.87711e-45 1.88702e-45 1.89793e-45 1.90928e-45 1.92058e-45 1.93141e-45 1.9415e-45 1.95067e-45 1.95882e-45 1.96599e-45 1.97223e-45 1.97762e-45 1.9822e-45 1.98595e-45 1.98877e-45 1.9904e-45 1.99048e-45 1.98849e-45 1.98382e-45 1.97573e-45 1.96343e-45 1.94611e-45 1.92297e-45 1.89327e-45 1.8564e-45 1.81186e-45 1.75936e-45 1.69881e-45 1.63036e-45 1.5544e-45 1.47156e-45 1.38271e-45 1.28892e-45 1.19146e-45 1.09171e-45 9.91135e-46 8.91232e-46 7.93452e-46 6.99153e-46 6.09541e-46 5.2563e-46 4.48209e-46 3.77827e-46 3.14783e-46 2.59146e-46 2.10769e-46 1.69327e-46 1.34349e-46 1.05263e-46 8.14329e-47 6.21969e-47 4.68971e-47 3.49065e-47 2.56465e-47 1.85994e-47 1.33139e-47 9.40689e-48 6.56026e-48 4.51579e-48 3.06828e-48 2.05785e-48 1.36241e-48 8.90416e-49 5.74501e-49 3.65953e-49 2.30155e-49 1.42923e-49 8.764e-50 5.30699e-50 3.17375e-50 1.87459e-50 1.09367e-50 6.30295e-51 3.58852e-51 2.01854e-51 1.12187e-51 6.16132e-52 3.34398e-52 1.7937e-52 9.50975e-53 4.98379e-53 2.58197e-53 1.32237e-53 6.69396e-54 3.34535e-54 1.64169e-54 7.71639e-55 3.04621e-55 0 
0 6.08084e-73 2.09881e-72 6.59773e-72 2.04117e-71 6.25949e-71 1.90398e-70 5.74453e-70 1.71908e-69 5.10229e-69 1.50188e-68 4.38416e-68 1.26909e-67 3.64271e-67 1.03672e-66 2.92537e-66 8.18373e-66 2.2696e-65 6.23949e-65 1.70029e-64 4.59246e-64 1.22938e-63 3.26153e-63 8.57474e-63 2.23386e-62 5.76632e-62 1.47475e-61 3.7367e-61 9.37943e-61 2.33213e-60 5.74362e-60 1.40102e-59 3.38454e-59 8.09687e-59 1.91807e-58 4.49894e-58 1.04477e-57 2.40193e-57 5.46635e-57 1.23139e-56 2.74551e-56 6.05815e-56 1.32286e-55 2.85828e-55 6.11055e-55 1.29241e-54 2.70413e-54 5.59662e-54 1.14566e-53 2.3194e-53 4.64354e-53 9.19254e-53 1.79927e-52 3.48167e-52 6.65997e-52 1.25924e-51 2.35316e-51 4.34573e-51 7.93051e-51 1.42996e-50 2.54734e-50 4.4828e-50 7.79237e-50 1.33784e-49 2.26837e-49 3.798e-49 6.27893e-49 1.02486e-48 1.65141e-48 2.62671e-48 4.12382e-48 6.38968e-48 9.77043e-48 1.47424e-47 2.19486e-47 3.22403e-47 4.67212e-47 6.67917e-47 9.41889e-47 1.31015e-46 1.79751e-46 2.43236e-46 3.24625e-46 4.27293e-46 5.54696e-46 7.10186e-46 8.9678e-46 1.11689e-45 1.37206e-45 1.66265e-45 1.98763e-45 2.3444e-45 2.72868e-45 3.13456e-45 3.55466e-45 3.98041e-45 4.40248e-45 4.81129e-45 5.19752e-45 5.55275e-45 5.86992e-45 6.14377e-45 6.37114e-45 6.55107e-45 6.6848e-45 6.77554e-45 6.82815e-45 6.84869e-45 6.84393e-45 6.82088e-45 6.78631e-45 6.74638e-45 6.70632e-45 6.67031e-45 6.64136e-45 6.62136e-45 6.61119e-45 6.6109e-45 6.61988e-45 6.63706e-45 6.66115e-45 6.69074e-45 6.72445e-45 6.761e-45 6.79927e-45 6.83829e-45 6.87721e-45 6.91528e-45 6.9518e-45 6.98605e-45 7.01731e-45 7.0448e-45 7.06772e-45 7.08523e-45 7.09653e-45 7.10089e-45 7.0977e-45 7.08654e-45 7.06719e-45 7.03967e-45 7.00425e-45 6.96142e-45 6.91186e-45 6.85638e-45 6.79585e-45 6.73119e-45 6.66323e-45 6.59275e-45 6.52043e-45 6.44687e-45 6.37258e-45 6.29808e-45 6.22392e-45 6.15074e-45 6.07933e-45 6.01061e-45 5.94569e-45 5.88578e-45 5.83215e-45 5.78605e-45 5.74858e-45 5.72062e-45 5.70269e-45 5.69492e-45 5.69699e-45 5.70815e-45 5.72723e-45 5.75275e-45 5.78303e-45 5.81633e-45 5.85096e-45 5.88541e-45 5.91846e-45 5.94922e-45 5.97715e-45 6.00205e-45 6.02397e-45 6.04312e-45 6.05975e-45 6.07403e-45 6.08594e-45 6.09514e-45 6.10092e-45 6.10216e-45 6.09733e-45 6.08451e-45 6.06149e-45 6.02585e-45 5.97508e-45 5.90671e-45 5.81844e-45 5.70829e-45 5.57471e-45 5.41671e-45 5.23393e-45 5.02672e-45 4.79617e-45 4.54413e-45 4.27319e-45 3.98659e-45 3.68815e-45 3.3821e-45 3.07297e-45 2.76537e-45 2.46383e-45 2.17258e-45 1.89541e-45 1.63554e-45 1.39549e-45 1.17701e-45 9.8112e-46 8.08085e-46 6.57507e-46 5.28417e-46 4.19394e-46 3.28685e-46 2.54331e-46 1.94286e-46 1.46512e-46 1.09061e-46 8.01318e-47 5.81126e-47 4.15965e-47 2.93872e-47 2.04917e-47 1.41033e-47 9.5807e-48 6.42417e-48 4.25205e-48 2.77817e-48 1.79193e-48 1.14105e-48 7.17369e-49 4.45305e-49 2.72948e-49 1.65211e-49 9.87576e-50 5.83048e-50 3.39998e-50 1.95849e-50 1.11449e-50 6.26574e-51 3.48058e-51 1.91051e-51 1.03635e-51 5.55588e-52 2.94397e-52 1.54199e-52 7.98414e-53 4.08682e-53 2.06762e-53 1.03273e-53 5.06527e-54 2.37965e-54 9.39084e-55 0 
0 1.81224e-72 6.25669e-72 1.96748e-71 6.089e-71 1.86794e-70 5.68388e-70 1.71554e-69 5.13581e-69 1.52492e-68 4.49048e-68 1.31135e-67 3.79756e-67 1.09049e-66 3.10492e-66 8.76518e-66 2.45317e-65 6.80655e-65 1.87211e-64 5.10404e-64 1.37927e-63 3.69409e-63 9.80534e-63 2.57921e-62 6.72281e-62 1.73631e-61 4.44308e-61 1.12641e-60 2.82897e-60 7.03809e-60 1.73437e-59 4.23312e-59 1.02324e-58 2.44941e-58 5.80604e-58 1.3627e-57 3.16657e-57 7.2847e-57 1.65896e-56 3.7396e-56 8.34343e-56 1.8423e-55 4.02562e-55 8.70422e-55 1.86214e-54 3.94133e-54 8.25246e-54 1.70921e-53 3.50141e-53 7.09388e-53 1.42128e-52 2.81572e-52 5.51536e-52 1.06805e-51 2.04457e-51 3.86868e-51 7.2349e-51 1.33712e-50 2.44192e-50 4.4063e-50 7.8552e-50 1.38337e-49 2.40641e-49 4.13443e-49 7.01502e-49 1.17535e-48 1.94443e-48 3.17583e-48 5.12063e-48 8.14987e-48 1.28026e-47 1.98485e-47 3.03669e-47 4.58439e-47 6.82864e-47 1.00352e-46 1.45488e-46 2.08067e-46 2.93517e-46 4.08404e-46 5.60472e-46 7.58591e-46 1.0126e-45 1.33301e-45 1.73059e-45 2.21573e-45 2.79778e-45 3.48414e-45 4.27944e-45 5.18462e-45 6.19622e-45 7.3058e-45 8.49971e-45 9.75916e-45 1.10608e-44 1.23777e-44 1.36804e-44 1.4939e-44 1.61244e-44 1.72105e-44 1.81753e-44 1.9003e-44 1.96841e-44 2.02162e-44 2.06037e-44 2.08572e-44 2.09924e-44 2.10286e-44 2.09875e-44 2.08911e-44 2.07607e-44 2.06157e-44 2.04723e-44 2.03434e-44 2.02384e-44 2.01629e-44 2.01196e-44 2.01083e-44 2.01269e-44 2.01721e-44 2.02396e-44 2.03249e-44 2.04236e-44 2.05316e-44 2.06454e-44 2.07619e-44 2.08785e-44 2.09928e-44 2.11026e-44 2.12057e-44 2.13e-44 2.13829e-44 2.14521e-44 2.15051e-44 2.15394e-44 2.15527e-44 2.15433e-44 2.15097e-44 2.14515e-44 2.13686e-44 2.12618e-44 2.11327e-44 2.09833e-44 2.0816e-44 2.06335e-44 2.04385e-44 2.02336e-44 2.00212e-44 1.98032e-44 1.95815e-44 1.93576e-44 1.9133e-44 1.89094e-44 1.86887e-44 1.84733e-44 1.8266e-44 1.80701e-44 1.78893e-44 1.77274e-44 1.75882e-44 1.74751e-44 1.73907e-44 1.73367e-44 1.73134e-44 1.73199e-44 1.73539e-44 1.74118e-44 1.74892e-44 1.7581e-44 1.76818e-44 1.77866e-44 1.78909e-44 1.79908e-44 1.80839e-44 1.81684e-44 1.82437e-44 1.83102e-44 1.83685e-44 1.84195e-44 1.84637e-44 1.85012e-44 1.8531e-44 1.8551e-44 1.8558e-44 1.85473e-44 1.85131e-44 1.84488e-44 1.8347e-44 1.82001e-44 1.80003e-44 1.77407e-44 1.7415e-44 1.70183e-44 1.65472e-44 1.60005e-44 1.53788e-44 1.46851e-44 1.39248e-44 1.31055e-44 1.22369e-44 1.13304e-44 1.03989e-44 9.45625e-45 8.51656e-45 7.5938e-45 6.70113e-45 5.85039e-45 5.05164e-45 4.31288e-45 3.63975e-45 3.03558e-45 2.5014e-45 2.03616e-45 1.63701e-45 1.29968e-45 1.01885e-45 7.88546e-46 6.02482e-46 4.54391e-46 3.38265e-46 2.48547e-46 1.80247e-46 1.29012e-46 9.11366e-47 6.35412e-47 4.37245e-47 2.9697e-47 1.99081e-47 1.31733e-47 8.60448e-48 5.5481e-48 3.53165e-48 2.21948e-48 1.37718e-48 8.43783e-49 5.10505e-49 3.05022e-49 1.79994e-49 1.0491e-49 6.04008e-50 3.43535e-50 1.93036e-50 1.07173e-50 5.87956e-51 3.18756e-51 1.7079e-51 9.04471e-52 4.73471e-52 2.45014e-52 1.25342e-52 6.33768e-53 3.16371e-53 1.55086e-53 7.28225e-54 2.87274e-54 0 
0 5.35623e-72 1.84975e-71 5.81869e-71 1.80143e-70 5.52831e-70 1.68282e-69 5.08111e-69 1.52173e-68 4.52012e-68 1.3316e-67 3.89028e-67 1.12707e-66 3.23787e-66 9.22315e-66 2.60487e-65 7.29382e-65 2.02469e-64 5.5715e-64 1.51974e-63 4.10885e-63 1.10104e-62 2.92404e-62 7.6955e-62 2.00695e-61 5.18622e-61 1.32786e-60 3.3683e-60 8.4644e-60 2.10707e-59 5.19549e-59 1.26885e-58 3.069e-58 7.35113e-58 1.74362e-57 4.09499e-57 9.52199e-57 2.192e-56 4.99527e-56 1.1268e-55 2.51576e-55 5.55891e-55 1.21555e-54 2.63016e-54 5.63095e-54 1.1927e-53 2.49916e-53 5.18004e-53 1.06196e-52 2.15317e-52 4.31723e-52 8.5595e-52 1.67791e-51 3.25178e-51 6.22971e-51 1.17968e-50 2.20786e-50 4.08361e-50 7.46346e-50 1.34777e-49 2.40453e-49 4.23777e-49 7.37726e-49 1.26841e-48 2.15372e-48 3.61109e-48 5.97812e-48 9.77072e-48 1.57646e-47 2.51066e-47 3.94645e-47 6.12203e-47 9.37167e-47 1.41558e-46 2.10964e-46 3.10177e-46 4.49885e-46 6.4366e-46 9.08335e-46 1.26428e-45 1.73552e-45 2.34955e-45 3.13686e-45 4.12999e-45 5.3622e-45 6.86557e-45 8.66876e-45 1.07944e-44 1.32562e-44 1.60564e-44 1.91836e-44 2.26107e-44 2.62943e-44 3.01751e-44 3.41798e-44 3.8224e-44 4.22159e-44 4.60623e-44 4.96731e-44 5.29676e-44 5.58791e-44 5.83591e-44 6.038e-44 6.19359e-44 6.30424e-44 6.37342e-44 6.40615e-44 6.4086e-44 6.38757e-44 6.34998e-44 6.30251e-44 6.25114e-44 6.20094e-44 6.15585e-44 6.11872e-44 6.09126e-44 6.0742e-44 6.06746e-44 6.07035e-44 6.08173e-44 6.10025e-44 6.12449e-44 6.15305e-44 6.18466e-44 6.21819e-44 6.25268e-44 6.2873e-44 6.32131e-44 6.35405e-44 6.38485e-44 6.41302e-44 6.43784e-44 6.45858e-44 6.47447e-44 6.48477e-44 6.48882e-44 6.48604e-44 6.47606e-44 6.45868e-44 6.4339e-44 6.40199e-44 6.36338e-44 6.31869e-44 6.26865e-44 6.21408e-44 6.15578e-44 6.09453e-44 6.03101e-44 5.96585e-44 5.89957e-44 5.83263e-44 5.76549e-44 5.69864e-44 5.63264e-44 5.5682e-44 5.50617e-44 5.44753e-44 5.39339e-44 5.34492e-44 5.30325e-44 5.26939e-44 5.24415e-44 5.22801e-44 5.22109e-44 5.22311e-44 5.23337e-44 5.25081e-44 5.27409e-44 5.30167e-44 5.33197e-44 5.36344e-44 5.39472e-44 5.4247e-44 5.45261e-44 5.47796e-44 5.5006e-44 5.52061e-44 5.53823e-44 5.55374e-44 5.56733e-44 5.57903e-44 5.5886e-44 5.59542e-44 5.59852e-44 5.59654e-44 5.58776e-44 5.57017e-44 5.54155e-44 5.49957e-44 5.44191e-44 5.36639e-44 5.27108e-44 5.15443e-44 5.01535e-44 4.85332e-44 4.66846e-44 4.4616e-44 4.23423e-44 3.98858e-44 3.7275e-44 3.45441e-44 3.17319e-44 2.88801e-44 2.60319e-44 2.32301e-44 2.05151e-44 1.79237e-44 1.54873e-44 1.32308e-44 1.11725e-44 9.32298e-45 7.68613e-45 6.25928e-45 5.03419e-45 3.99814e-45 3.13511e-45 2.42698e-45 1.85463e-45 1.39893e-45 1.0415e-45 7.65282e-46 5.54978e-46 3.97204e-46 2.80564e-46 1.95584e-46 1.34563e-46 9.13738e-47 6.12395e-47 4.05112e-47 2.64529e-47 1.70509e-47 1.08498e-47 6.81593e-48 4.22754e-48 2.58904e-48 1.56571e-48 9.35053e-49 5.51507e-49 3.21285e-49 1.8488e-49 1.05096e-49 5.90227e-50 3.27509e-50 1.79572e-50 9.7298e-51 5.21023e-51 2.75763e-51 1.44271e-51 7.46138e-52 3.81476e-52 1.92771e-52 9.61727e-53 4.71171e-53 2.21132e-53 8.72002e-54 0 