# vtk DataFile Version 3.0
Gray-Scott Simulation Output
ASCII
DATASET STRUCTURED_POINTS
DIMENSIONS 256 256 1
SPACING 1.0 1.0 1.0
ORIGIN 0 0 0
POINT_DATA 65536
SCALARS u double
LOOKUP_TABLE default
0 0 0 0 0 0 0 0 0 0 0 0 0 0 0 0 0 0 0 0 0 0 0 0 0 0 0 0 0 0 0 0 0 0 0 0 0 0 0 0 0 0 0 0 0 0 0 0 0 0 0 0 0 0 0 0 0 0 0 0 0 0 0 0 0 0 0 0 0 0 0 0 0 0 0 0 0 0 0 0 0 0 0 0 0 0 0 0 0 0 0 0 0 0 0 0 0 0 0 0 0 0 0 0 0 0 0 0 0 0 0 0 0 0 0 0 0 0 0 0 0 0 0 0 0 0 0 0 0 0 0 0 0 0 0 0 0 0 0 0 0 0 0 0 0 0 0 0 0 0 0 0 0 0 0 0 0 0 0 0 0 0 0 0 0 0 0 0 0 0 0 0 0 0 0 0 0 0 0 0 0 0 0 0 0 0 0 0 0 0 0 0 0 0 0 0 0 0 0 0 0 0 0 0 0 0 0 0 0 0 0 0 0 0 0 0 0 0 0 0 0 0 0 0 0 0 0 0 0 0 0 0 0 0 0 0 0 0 0 0 0 0 0 0 0 0 0 0 0 0 0 0 0 0 0 0 
0 1.01144e-90 4.82895e-90 2.18694e-89 9.79359e-89 4.34473e-88 1.90943e-87 8.3125e-87 3.58439e-86 1.5308e-85 6.47454e-85 2.71174e-84 1.12461e-83 4.61775e-83 1.87716e-82 7.55392e-82 3.00891e-81 1.18623e-80 4.62824e-80 1.78693e-79 6.82656e-79 2.58024e-78 9.64803e-78 3.56857e-77 1.30552e-76 4.72351e-76 1.69001e-75 5.97877e-75 2.09116e-74 7.2305e-74 2.47119e-73 8.34742e-73 2.78648e-72 9.19114e-72 2.99529e-71 9.64303e-71 3.06648e-70 9.63084e-70 2.98698e-69 9.14718e-69 2.7655e-68 8.25344e-68 2.43115e-67 7.06714e-67 2.02709e-66 5.73638e-66 1.60131e-65 4.40885e-65 1.19708e-64 3.20479e-64 8.45854e-64 2.2006e-63 5.64248e-63 1.42565e-62 3.54899e-62 8.70303e-62 2.10205e-61 4.99977e-61 1.1709e-60 2.69948e-60 6.12574e-60 1.36798e-59 3.00588e-59 6.49768e-59 1.38155e-58 2.88883e-58 5.9395e-58 1.20054e-57 2.3852e-57 4.65719e-57 8.93512e-57 1.68416e-56 3.11817e-56 5.66998e-56 1.01242e-55 1.77489e-55 3.05455e-55 5.15978e-55 8.55386e-55 1.39151e-54 2.22102e-54 3.47789e-54 5.34234e-54 8.04943e-54 1.18956e-53 1.72414e-53 2.45081e-53 3.41658e-53 4.67111e-53 6.26345e-53 8.23755e-53 1.06272e-52 1.34503e-52 1.67041e-52 2.03604e-52 2.43644e-52 2.86341e-52 3.30645e-52 3.75337e-52 4.19121e-52 4.60723e-52 4.99009e-52 5.33076e-52 5.62333e-52 5.86541e-52 6.05816e-52 6.20597e-52 6.31576e-52 6.3961e-52 6.45622e-52 6.50503e-52 6.55033e-52 6.59823e-52 6.65279e-52 6.71609e-52 6.78833e-52 6.86827e-52 6.95372e-52 7.042e-52 7.13046e-52 7.21682e-52 7.29944e-52 7.37742e-52 7.45058e-52 7.51937e-52 7.58467e-52 7.64754e-52 7.70895e-52 7.76957e-52 7.82955e-52 7.88839e-52 7.94484e-52 7.99698e-52 8.0423e-52 8.07791e-52 8.10086e-52 8.10842e-52 8.09843e-52 8.06954e-52 8.02148e-52 7.95506e-52 7.87217e-52 7.77555e-52 7.66854e-52 7.55465e-52 7.43721e-52 7.319e-52 7.20197e-52 7.08709e-52 6.97436e-52 6.86297e-52 6.75161e-52 6.63886e-52 6.52361e-52 6.40551e-52 6.28528e-52 6.1649e-52 6.04758e-52 5.93756e-52 5.83973e-52 5.75902e-52 5.69988e-52 5.66562e-52 5.65794e-52 5.67663e-52 5.7195e-52 5.78253e-52 5.86027e-52 5.94644e-52 6.03457e-52 6.11867e-52 6.19387e-52 6.2568e-52 6.30584e-52 6.34112e-52 6.36431e-52 6.37821e-52 6.38626e-52 6.39191e-52 6.39814e-52 6.4069e-52 6.41879e-52 6.43287e-52 6.44656e-52 6.45582e-52 6.45543e-52 6.43939e-52 6.40138e-52 6.33532e-52 6.23586e-52 6.09882e-52 5.92154e-52 5.70316e-52 5.44468e-52 5.14891e-52 4.82039e-52 4.46505e-52 4.08992e-52 3.70275e-52 3.31158e-52 2.92437e-52 2.54859e-52 2.19091e-52 1.85695e-52 1.55103e-52 1.2761e-52 1.03372e-52 8.24129e-53 6.46393e-53 4.98599e-53 3.78112e-53 2.81826e-53 2.06407e-53 1.4851e-53 1.04954e-53 7.28437e-54 4.96459e-54 3.32229e-54 2.18288e-54 1.40815e-54 8.91839e-55 5.54566e-55 3.38581e-55 2.02972e-55 1.19482e-55 6.90712e-56 3.92157e-56 2.18694e-56 1.19805e-56 6.44806e-57 3.41e-57 1.77218e-57 9.05219e-58 4.54519e-58 2.24372e-58 1.0891e-58 5.19898e-59 2.44111e-59 1.12757e-59 5.12452e-60 2.29186e-60 1.00883e-60 4.37132e-61 1.86482e-61 7.83367e-62 3.24088e-62 1.32068e-62 5.30202e-63 2.09728e-63 8.17542e-64 3.14094e-64 1.18931e-64 4.43296e-65 1.60928e-65 5.18708e-66 0 
0 4.82354e-90 2.30297e-89 1.043e-88 4.67091e-88 2.07222e-87 9.10736e-87 3.96496e-86 1.70979e-85 7.30241e-85 3.08872e-84 1.29372e-83 5.36562e-83 2.20332e-82 8.95729e-82 3.60479e-81 1.43598e-80 5.66168e-80 2.20917e-79 8.53019e-79 3.25908e-78 1.23196e-77 4.60701e-77 1.70421e-76 6.23537e-76 2.25628e-75 8.07367e-75 2.8566e-74 9.99271e-74 3.45561e-73 1.1812e-72 3.99057e-72 1.33232e-71 4.39531e-71 1.43262e-70 4.61296e-70 1.46718e-69 4.60877e-69 1.42966e-68 4.37898e-68 1.32418e-67 3.95271e-67 1.16456e-66 3.38601e-66 9.71432e-66 2.74963e-65 7.67738e-65 2.11429e-64 5.74202e-64 1.53762e-63 4.05932e-63 1.05635e-62 2.70926e-62 6.84712e-62 1.70496e-61 4.18213e-61 1.01039e-60 2.4039e-60 5.63128e-60 1.29864e-59 2.94775e-59 6.5847e-59 1.44728e-58 3.12942e-58 6.65574e-58 1.39212e-57 2.86304e-57 5.78863e-57 1.15039e-56 2.24681e-56 4.31184e-56 8.12946e-56 1.50554e-55 2.73834e-55 4.89074e-55 8.57611e-55 1.47628e-54 2.49431e-54 4.13594e-54 6.72956e-54 1.07433e-53 1.68258e-53 2.58501e-53 3.89547e-53 5.75758e-53 8.34598e-53 1.18647e-52 1.65415e-52 2.26169e-52 3.03282e-52 3.98882e-52 5.146e-52 6.51302e-52 8.08837e-52 9.85844e-52 1.17964e-51 1.38627e-51 1.60061e-51 1.81678e-51 2.02847e-51 2.22953e-51 2.41447e-51 2.57893e-51 2.72005e-51 2.83671e-51 2.92946e-51 3.00047e-51 3.05308e-51 3.09145e-51 3.12007e-51 3.14323e-51 3.16473e-51 3.1875e-51 3.21352e-51 3.24378e-51 3.27838e-51 3.31673e-51 3.35775e-51 3.40016e-51 3.44266e-51 3.48417e-51 3.52389e-51 3.56137e-51 3.59654e-51 3.62961e-51 3.661e-51 3.69122e-51 3.72073e-51 3.74988e-51 3.77872e-51 3.80701e-51 3.83416e-51 3.85923e-51 3.88103e-51 3.89817e-51 3.90922e-51 3.91286e-51 3.90807e-51 3.89418e-51 3.87107e-51 3.83913e-51 3.79927e-51 3.75281e-51 3.70135e-51 3.64659e-51 3.59013e-51 3.53331e-51 3.47706e-51 3.42185e-51 3.36768e-51 3.31415e-51 3.26064e-51 3.20644e-51 3.15103e-51 3.09423e-51 3.03639e-51 2.97846e-51 2.92199e-51 2.86903e-51 2.82192e-51 2.78305e-51 2.75457e-51 2.73807e-51 2.73438e-51 2.74339e-51 2.76405e-51 2.79442e-51 2.83189e-51 2.8734e-51 2.91586e-51 2.95637e-51 2.99258e-51 3.02288e-51 3.04647e-51 3.06343e-51 3.07457e-51 3.08123e-51 3.08507e-51 3.08777e-51 3.09075e-51 3.09497e-51 3.10071e-51 3.10751e-51 3.11415e-51 3.11867e-51 3.11856e-51 3.11092e-51 3.09271e-51 3.061e-51 3.01319e-51 2.94726e-51 2.86193e-51 2.75677e-51 2.63224e-51 2.48969e-51 2.33129e-51 2.15989e-51 1.97887e-51 1.79195e-51 1.60303e-51 1.41594e-51 1.23429e-51 1.06133e-51 8.9976e-52 7.51697e-52 6.18584e-52 5.0119e-52 3.99644e-52 3.13505e-52 2.41857e-52 1.83433e-52 1.36735e-52 1.0015e-52 7.20618e-53 5.09284e-53 3.53471e-53 2.409e-53 1.61204e-53 1.05911e-53 6.83164e-54 4.32636e-54 2.68993e-54 1.64208e-54 9.84253e-55 5.79303e-55 3.34833e-55 1.9007e-55 1.05976e-55 5.80443e-56 3.12337e-56 1.65141e-56 8.58054e-57 4.38189e-57 2.19968e-57 1.08561e-57 5.26829e-58 2.51429e-58 1.18026e-58 5.45039e-59 2.47647e-59 1.10729e-59 4.87288e-60 2.11093e-60 9.00314e-61 3.78109e-61 1.56391e-61 6.37153e-62 2.55732e-62 1.01135e-62 3.94144e-63 1.51393e-63 5.73121e-64 2.13576e-64 7.7518e-65 2.49817e-65 0 
0 2.18177e-89 1.0417e-88 4.71791e-88 2.11292e-87 9.37424e-87 4.12013e-86 1.79382e-85 7.73576e-85 3.30409e-84 1.39762e-83 5.85438e-83 2.42823e-82 9.97193e-82 4.05427e-81 1.63174e-80 6.50069e-80 2.56328e-79 1.00028e-78 3.86274e-78 1.47597e-77 5.57993e-77 2.08691e-76 7.72077e-76 2.82524e-75 1.02246e-74 3.65918e-74 1.29487e-73 4.53029e-73 1.56688e-72 5.35681e-72 1.81005e-71 6.04419e-71 1.99434e-70 6.50162e-70 2.09389e-69 6.66106e-69 2.09284e-68 6.49346e-68 1.98934e-67 6.01699e-67 1.7965e-66 5.29417e-66 1.53967e-65 4.41836e-65 1.25093e-64 3.49369e-64 9.62388e-64 2.61438e-63 7.00282e-63 1.84926e-62 4.8137e-62 1.23494e-61 3.12201e-61 7.77624e-61 1.90803e-60 4.61117e-60 1.09742e-59 2.57159e-59 5.93229e-59 1.34698e-58 3.00986e-58 6.61763e-58 1.43138e-57 3.04529e-57 6.37159e-57 1.31081e-56 2.6511e-56 5.2703e-56 1.02965e-55 1.97661e-55 3.7278e-55 6.9058e-55 1.25642e-54 2.24463e-54 3.93713e-54 6.77912e-54 1.14568e-53 1.90018e-53 3.09247e-53 4.93797e-53 7.73525e-53 1.18862e-52 1.79148e-52 2.64824e-52 3.83931e-52 5.45862e-52 7.61099e-52 1.04071e-51 1.39562e-51 1.83561e-51 2.36816e-51 2.99724e-51 3.7221e-51 4.53643e-51 5.42785e-51 6.37803e-51 7.36346e-51 8.3569e-51 9.3294e-51 1.02526e-50 1.11013e-50 1.18555e-50 1.25021e-50 1.30359e-50 1.34597e-50 1.37835e-50 1.40227e-50 1.41965e-50 1.43256e-50 1.44297e-50 1.45263e-50 1.46289e-50 1.47466e-50 1.48839e-50 1.50412e-50 1.52158e-50 1.54027e-50 1.55961e-50 1.57901e-50 1.59795e-50 1.61608e-50 1.63319e-50 1.64924e-50 1.66433e-50 1.67866e-50 1.69245e-50 1.70592e-50 1.71922e-50 1.73239e-50 1.74531e-50 1.75771e-50 1.76916e-50 1.77912e-50 1.78695e-50 1.792e-50 1.79367e-50 1.79149e-50 1.78515e-50 1.7746e-50 1.76001e-50 1.74181e-50 1.72059e-50 1.69709e-50 1.67209e-50 1.64632e-50 1.62038e-50 1.59471e-50 1.56952e-50 1.5448e-50 1.52038e-50 1.49596e-50 1.47123e-50 1.44593e-50 1.41999e-50 1.39357e-50 1.3671e-50 1.34128e-50 1.31707e-50 1.29552e-50 1.27775e-50 1.26472e-50 1.25717e-50 1.25549e-50 1.25962e-50 1.26907e-50 1.28298e-50 1.30012e-50 1.31912e-50 1.33855e-50 1.35708e-50 1.37364e-50 1.38749e-50 1.39827e-50 1.40601e-50 1.41109e-50 1.41412e-50 1.41586e-50 1.41708e-50 1.41843e-50 1.42036e-50 1.42299e-50 1.42612e-50 1.42918e-50 1.43128e-50 1.43127e-50 1.42782e-50 1.41955e-50 1.40509e-50 1.38327e-50 1.35316e-50 1.31416e-50 1.26606e-50 1.20908e-50 1.14383e-50 1.07129e-50 9.92757e-51 9.0978e-51 8.24062e-51 7.37381e-51 6.51498e-51 5.68075e-51 4.886e-51 4.14328e-51 3.46234e-51 2.84989e-51 2.30954e-51 1.84197e-51 1.4452e-51 1.11509e-51 8.45834e-52 6.30566e-52 4.61888e-52 3.32362e-52 2.34897e-52 1.63032e-52 1.11108e-52 7.4347e-53 4.88428e-53 3.15025e-53 1.99478e-53 1.24011e-53 7.56919e-54 4.53619e-54 2.6694e-54 1.5426e-54 8.75487e-55 4.88035e-55 2.67243e-55 1.4377e-55 7.59967e-56 3.94771e-56 2.01549e-56 1.0115e-56 4.99073e-57 2.42127e-57 1.15524e-57 5.42145e-58 2.50291e-58 1.13692e-58 5.08207e-59 2.23586e-59 9.68306e-60 4.12871e-60 1.73348e-60 7.16797e-61 2.91953e-61 1.17149e-61 4.63171e-62 1.80462e-62 6.9299e-63 2.62276e-63 9.77144e-64 3.54577e-64 1.14248e-64 0 
0 9.7579e-89 4.6591e-88 2.11021e-87 9.45099e-87 4.19322e-86 1.84308e-85 8.02479e-85 3.46085e-84 1.47829e-83 6.25352e-83 2.61967e-82 1.08664e-81 4.46283e-81 1.8146e-80 7.30396e-80 2.91009e-79 1.14759e-78 4.47874e-78 1.72973e-77 6.61014e-77 2.49927e-76 9.3485e-76 3.45904e-75 1.26593e-74 4.58207e-74 1.64008e-73 5.80462e-73 2.03115e-72 7.02625e-72 2.40253e-71 8.11952e-71 2.7118e-70 8.94956e-70 2.91816e-69 9.40005e-69 2.99096e-68 9.39932e-68 2.91698e-67 8.93853e-67 2.70419e-66 8.07591e-66 2.3805e-65 6.92483e-65 1.98772e-64 5.62914e-64 1.57257e-63 4.3331e-63 1.17744e-62 3.15479e-62 8.33344e-62 2.16988e-61 5.56846e-61 1.40818e-60 3.50857e-60 8.61162e-60 2.08185e-59 4.95627e-59 1.16179e-58 2.68097e-58 6.08943e-58 1.36116e-57 2.99372e-57 6.47755e-57 1.37858e-56 2.88535e-56 5.93794e-56 1.20135e-55 2.38903e-55 4.66897e-55 8.96588e-55 1.69146e-54 3.13444e-54 5.70444e-54 1.01942e-53 1.7886e-53 3.08055e-53 5.20756e-53 8.63922e-53 1.40634e-52 2.24611e-52 3.51925e-52 5.4088e-52 8.1536e-52 1.20549e-51 1.74791e-51 2.48543e-51 3.46579e-51 4.73943e-51 6.35606e-51 8.36019e-51 1.07858e-50 1.36508e-50 1.69517e-50 2.06593e-50 2.47172e-50 2.90414e-50 3.35248e-50 3.80429e-50 4.2464e-50 4.66588e-50 5.05126e-50 5.39345e-50 5.68654e-50 5.92822e-50 6.11977e-50 6.26576e-50 6.37329e-50 6.45112e-50 6.50864e-50 6.5549e-50 6.59779e-50 6.64347e-50 6.69607e-50 6.75764e-50 6.82836e-50 6.90699e-50 6.99128e-50 7.07854e-50 7.16609e-50 7.25162e-50 7.33347e-50 7.41073e-50 7.48322e-50 7.55137e-50 7.61606e-50 7.67834e-50 7.73918e-50 7.79925e-50 7.85872e-50 7.91707e-50 7.97309e-50 8.02486e-50 8.06987e-50 8.10528e-50 8.12813e-50 8.13571e-50 8.12586e-50 8.09724e-50 8.04958e-50 7.98369e-50 7.90144e-50 7.80558e-50 7.69942e-50 7.58648e-50 7.47007e-50 7.35294e-50 7.23704e-50 7.12331e-50 7.01174e-50 6.9015e-50 6.79126e-50 6.67957e-50 6.56531e-50 6.44811e-50 6.32869e-50 6.209e-50 6.09225e-50 5.98271e-50 5.88523e-50 5.80479e-50 5.74583e-50 5.71169e-50 5.70407e-50 5.72278e-50 5.76562e-50 5.82858e-50 5.90622e-50 5.99225e-50 6.08019e-50 6.16408e-50 6.23902e-50 6.30166e-50 6.35039e-50 6.38536e-50 6.40825e-50 6.42187e-50 6.42966e-50 6.43512e-50 6.44121e-50 6.44992e-50 6.46187e-50 6.4761e-50 6.49006e-50 6.49973e-50 6.49988e-50 6.4845e-50 6.44729e-50 6.38213e-50 6.28363e-50 6.14755e-50 5.97119e-50 5.7536e-50 5.49566e-50 5.20014e-50 4.87144e-50 4.51543e-50 4.13909e-50 3.75012e-50 3.35659e-50 2.96649e-50 2.58737e-50 2.22601e-50 1.88815e-50 1.57824e-50 1.29938e-50 1.05326e-50 8.40194e-51 6.59333e-51 5.08807e-51 3.85998e-51 2.8779e-51 2.10822e-51 1.51709e-51 1.07223e-51 7.44188e-52 5.0716e-52 3.39344e-52 2.22918e-52 1.43764e-52 9.10224e-53 5.65786e-53 3.45283e-53 2.06892e-53 1.21726e-53 7.03292e-54 3.99062e-54 2.22404e-54 1.21757e-54 6.54863e-55 3.46072e-55 1.79722e-55 9.17321e-56 4.60243e-56 2.2702e-56 1.10109e-56 5.252e-57 2.46402e-57 1.13723e-57 5.16426e-58 2.30776e-58 1.01501e-58 4.39453e-59 1.87323e-59 7.86269e-60 3.25032e-60 1.32349e-60 5.30918e-61 2.09851e-61 8.17404e-62 3.13808e-62 1.18736e-62 4.42254e-63 1.60443e-63 5.16863e-64 0 
0 4.32319e-88 2.06426e-87 9.34987e-87 4.1877e-86 1.85809e-85 8.16744e-85 3.55632e-84 1.53383e-83 6.55209e-83 2.77189e-82 1.16126e-81 4.81732e-81 1.97863e-80 8.04589e-80 3.23887e-79 1.29058e-78 5.08989e-78 1.98667e-77 7.67359e-77 2.93281e-76 1.10902e-75 4.14884e-75 1.53532e-74 5.61975e-74 2.03438e-73 7.28288e-73 2.57799e-72 9.02243e-72 3.12162e-71 1.06759e-70 3.60866e-70 1.20547e-69 3.97912e-69 1.29773e-68 4.18116e-68 1.33067e-67 4.18268e-67 1.29835e-66 3.9795e-66 1.20422e-65 3.59724e-65 1.06062e-64 3.08613e-64 8.86088e-64 2.51007e-63 7.01419e-63 1.93326e-62 5.25484e-62 1.40838e-61 3.72142e-61 9.69294e-61 2.48825e-60 6.29442e-60 1.56881e-59 3.85186e-59 9.31499e-59 2.21838e-58 5.20183e-58 1.2008e-57 2.72841e-57 6.10089e-57 1.3423e-56 2.90537e-56 6.18553e-56 1.29508e-55 2.66617e-55 5.39601e-55 1.07344e-54 2.09858e-54 4.03129e-54 7.6078e-54 1.41026e-53 2.56738e-53 4.5895e-53 8.05482e-53 1.3877e-52 2.34652e-52 3.89386e-52 6.34025e-52 1.01286e-51 1.58732e-51 2.44008e-51 3.67902e-51 5.44024e-51 7.88928e-51 1.12195e-50 1.56466e-50 2.13983e-50 2.8699e-50 3.77495e-50 4.87027e-50 6.16389e-50 7.65411e-50 9.32771e-50 1.1159e-49 1.311e-49 1.51321e-49 1.71691e-49 1.91615e-49 2.10509e-49 2.27854e-49 2.43244e-49 2.56411e-49 2.67254e-49 2.75833e-49 2.82355e-49 2.87143e-49 2.90594e-49 2.93131e-49 2.95163e-49 2.97048e-49 2.99061e-49 3.0139e-49 3.04125e-49 3.07276e-49 3.10785e-49 3.14551e-49 3.18453e-49 3.22369e-49 3.26197e-49 3.2986e-49 3.33318e-49 3.36562e-49 3.39612e-49 3.42507e-49 3.45294e-49 3.48017e-49 3.50706e-49 3.53369e-49 3.55981e-49 3.5849e-49 3.60809e-49 3.62826e-49 3.64413e-49 3.65438e-49 3.65778e-49 3.65338e-49 3.64058e-49 3.61924e-49 3.58973e-49 3.5529e-49 3.50997e-49 3.46244e-49 3.41187e-49 3.35975e-49 3.30733e-49 3.25546e-49 3.20457e-49 3.15466e-49 3.10534e-49 3.05601e-49 3.00603e-49 2.95488e-49 2.9024e-49 2.8489e-49 2.79526e-49 2.74293e-49 2.69381e-49 2.65009e-49 2.61401e-49 2.58756e-49 2.57225e-49 2.56884e-49 2.57724e-49 2.59648e-49 2.62474e-49 2.65959e-49 2.69821e-49 2.73767e-49 2.7753e-49 2.80892e-49 2.837e-49 2.85883e-49 2.87448e-49 2.8847e-49 2.89077e-49 2.89423e-49 2.89665e-49 2.89936e-49 2.90327e-49 2.90864e-49 2.91506e-49 2.92138e-49 2.92579e-49 2.92595e-49 2.91917e-49 2.9026e-49 2.87349e-49 2.82942e-49 2.76849e-49 2.68945e-49 2.59188e-49 2.47616e-49 2.3435e-49 2.19588e-49 2.03591e-49 1.86672e-49 1.69178e-49 1.51468e-49 1.33903e-49 1.16825e-49 1.00538e-49 8.53018e-50 7.13201e-50 5.87334e-50 4.76192e-50 3.79943e-50 2.98211e-50 2.30167e-50 1.74635e-50 1.30217e-50 9.53985e-51 6.86531e-51 4.85229e-51 3.36774e-51 2.29502e-51 1.53553e-51 1.00862e-51 6.5041e-52 4.1175e-52 2.55902e-52 1.56145e-52 9.3544e-53 5.50265e-53 3.17857e-53 1.80318e-53 1.0047e-53 5.49898e-54 2.95682e-54 1.56216e-54 8.1104e-55 4.13846e-55 2.07577e-55 1.0236e-55 4.96318e-56 2.36665e-56 1.11e-56 5.12149e-57 2.32501e-57 1.03867e-57 4.56693e-58 1.97668e-58 8.42333e-59 3.53457e-59 1.4607e-59 5.94609e-60 2.38458e-60 9.42263e-61 3.66924e-61 1.40826e-61 5.32701e-62 1.98362e-62 7.19446e-63 2.31721e-63 0 
0 1.8974e-87 9.06015e-87 4.10388e-86 1.83817e-85 8.15643e-85 3.58545e-84 1.56129e-83 6.73423e-83 2.87688e-82 1.21717e-81 5.09964e-81 2.11569e-80 8.69061e-80 3.53427e-79 1.42286e-78 5.6702e-78 2.23651e-77 8.73049e-77 3.37259e-76 1.28915e-75 4.87548e-75 1.82416e-74 6.7515e-74 2.47162e-73 8.94882e-73 3.2041e-72 1.13438e-71 3.97078e-71 1.37408e-70 4.7002e-70 1.58907e-69 5.30935e-69 1.75292e-68 5.71809e-68 1.84272e-67 5.86588e-67 1.84425e-66 5.72613e-66 1.75552e-65 5.31366e-65 1.5877e-64 4.68247e-64 1.36286e-63 3.91413e-63 1.1091e-62 3.1002e-62 8.54739e-62 2.324e-61 6.23067e-61 1.64688e-60 4.29091e-60 1.10187e-59 2.7883e-59 6.9519e-59 1.70747e-58 4.13064e-58 9.84065e-58 2.30834e-57 5.33056e-57 1.21163e-56 2.71026e-56 5.96523e-56 1.29164e-55 2.7509e-55 5.76176e-55 1.1866e-54 2.40242e-54 4.78091e-54 9.35007e-54 1.79675e-53 3.39198e-53 6.28985e-53 1.14545e-52 2.0483e-52 3.59601e-52 6.19718e-52 1.04821e-51 1.7399e-51 2.83377e-51 4.52811e-51 7.09791e-51 1.09135e-50 1.64579e-50 2.43409e-50 3.53039e-50 5.0213e-50 7.00341e-50 9.57868e-50 1.28475e-49 1.68997e-49 2.18036e-49 2.75946e-49 3.42649e-49 4.17547e-49 4.99482e-49 5.86748e-49 6.77166e-49 7.68214e-49 8.57221e-49 9.41579e-49 1.01897e-48 1.08757e-48 1.1462e-48 1.19441e-48 1.23249e-48 1.26135e-48 1.28247e-48 1.29761e-48 1.30869e-48 1.31752e-48 1.32571e-48 1.3345e-48 1.34471e-48 1.35675e-48 1.37065e-48 1.38617e-48 1.40285e-48 1.42014e-48 1.43751e-48 1.45448e-48 1.47073e-48 1.48607e-48 1.50046e-48 1.51399e-48 1.52683e-48 1.53919e-48 1.55127e-48 1.5632e-48 1.57501e-48 1.58661e-48 1.59775e-48 1.60804e-48 1.617e-48 1.62405e-48 1.62861e-48 1.63013e-48 1.62818e-48 1.6225e-48 1.61303e-48 1.59993e-48 1.58358e-48 1.56453e-48 1.54343e-48 1.52099e-48 1.49786e-48 1.4746e-48 1.4516e-48 1.42903e-48 1.4069e-48 1.38503e-48 1.36315e-48 1.34098e-48 1.31829e-48 1.295e-48 1.27124e-48 1.24741e-48 1.22416e-48 1.20233e-48 1.1829e-48 1.16685e-48 1.1551e-48 1.14829e-48 1.14677e-48 1.15052e-48 1.15908e-48 1.17166e-48 1.18716e-48 1.20434e-48 1.2219e-48 1.23863e-48 1.25357e-48 1.26605e-48 1.27575e-48 1.28269e-48 1.28721e-48 1.28989e-48 1.29141e-48 1.29247e-48 1.29367e-48 1.29541e-48 1.2978e-48 1.30067e-48 1.30351e-48 1.30551e-48 1.30563e-48 1.30266e-48 1.29535e-48 1.28247e-48 1.26293e-48 1.23589e-48 1.20079e-48 1.15742e-48 1.10596e-48 1.04694e-48 9.81228e-49 9.09984e-49 8.34593e-49 7.56593e-49 6.77594e-49 5.992e-49 5.22932e-49 4.50162e-49 3.82053e-49 3.19519e-49 2.63197e-49 2.13443e-49 1.70338e-49 1.33721e-49 1.03226e-49 7.83317e-50 5.84144e-50 4.27984e-50 3.08011e-50 2.17702e-50 1.51095e-50 1.02964e-50 6.88857e-51 4.52442e-51 2.91725e-51 1.84656e-51 1.14746e-51 7.00028e-52 4.19297e-52 2.46597e-52 1.42414e-52 8.0771e-53 4.49932e-53 2.46195e-53 1.32344e-53 6.99009e-54 3.62807e-54 1.85074e-54 9.28016e-55 4.57482e-55 2.21753e-55 1.05708e-55 4.95634e-56 2.28612e-56 1.0375e-56 4.63345e-57 2.03665e-57 8.81235e-58 3.75408e-58 1.57479e-58 6.50601e-59 2.6476e-59 1.06146e-59 4.19309e-60 1.63234e-60 6.26315e-61 2.36849e-61 8.8171e-62 3.19708e-62 1.02951e-62 0 
0 8.24875e-87 3.93896e-86 1.78428e-85 7.99237e-85 3.54662e-84 1.55913e-83 6.78973e-83 2.92878e-82 1.25128e-81 5.2944e-81 2.21841e-80 9.20434e-80 3.78123e-79 1.53789e-78 6.19203e-78 2.46784e-77 9.7351e-77 3.80068e-76 1.46839e-75 5.61357e-75 2.12331e-74 7.94553e-74 2.9412e-73 1.0769e-72 3.89968e-72 1.39651e-71 4.94507e-71 1.73129e-70 5.9922e-70 2.05011e-69 6.93252e-69 2.31676e-68 7.65058e-68 2.49621e-67 8.04618e-67 2.56192e-66 8.05671e-66 2.50213e-65 7.673e-65 2.32311e-64 6.94326e-64 2.04828e-63 5.96335e-63 1.71318e-62 4.85587e-62 1.35775e-61 3.74456e-61 1.01846e-60 2.73138e-60 7.22193e-60 1.8823e-59 4.83527e-59 1.224e-58 3.05281e-58 7.50076e-58 1.81521e-57 4.32608e-57 1.01516e-56 2.34514e-56 5.33248e-56 1.19327e-55 2.62736e-55 5.69115e-55 1.21256e-54 2.54067e-54 5.23438e-54 1.06017e-53 2.11057e-53 4.1292e-53 7.93777e-53 1.49907e-52 2.78077e-52 5.06586e-52 9.06184e-52 1.59143e-51 2.74345e-51 4.64178e-51 7.70703e-51 1.25559e-50 2.00683e-50 3.14651e-50 4.83903e-50 7.29894e-50 1.07969e-49 1.56623e-49 2.22796e-49 3.10778e-49 4.25094e-49 5.702e-49 7.50074e-49 9.67739e-49 1.22476e-48 1.52075e-48 1.85305e-48 2.21648e-48 2.60345e-48 3.00424e-48 3.40766e-48 3.80182e-48 4.17517e-48 4.51742e-48 4.82051e-48 5.07925e-48 5.29168e-48 5.45908e-48 5.58565e-48 5.67788e-48 5.74368e-48 5.79151e-48 5.8295e-48 5.86471e-48 5.90263e-48 5.94694e-48 5.99942e-48 6.06024e-48 6.12824e-48 6.20142e-48 6.27736e-48 6.35367e-48 6.42828e-48 6.49971e-48 6.56715e-48 6.63041e-48 6.68989e-48 6.74634e-48 6.80068e-48 6.85379e-48 6.90624e-48 6.95819e-48 7.0092e-48 7.0582e-48 7.10351e-48 7.14294e-48 7.17399e-48 7.19407e-48 7.20079e-48 7.19225e-48 7.16728e-48 7.12563e-48 7.06802e-48 6.99609e-48 6.91226e-48 6.81944e-48 6.72073e-48 6.61903e-48 6.51676e-48 6.41562e-48 6.31643e-48 6.21916e-48 6.12306e-48 6.02693e-48 5.92947e-48 5.82967e-48 5.7272e-48 5.62265e-48 5.51776e-48 5.41536e-48 5.31919e-48 5.23356e-48 5.16287e-48 5.11105e-48 5.08104e-48 5.07439e-48 5.09091e-48 5.12869e-48 5.18417e-48 5.25256e-48 5.32831e-48 5.4057e-48 5.47947e-48 5.54531e-48 5.60026e-48 5.64293e-48 5.67344e-48 5.69329e-48 5.705e-48 5.71161e-48 5.71621e-48 5.72146e-48 5.7291e-48 5.7397e-48 5.75243e-48 5.76506e-48 5.77404e-48 5.77477e-48 5.76195e-48 5.73001e-48 5.67353e-48 5.58771e-48 5.46878e-48 5.31427e-48 5.12327e-48 4.89648e-48 4.63622e-48 4.34631e-48 4.03182e-48 3.69884e-48 3.35415e-48 3.00485e-48 2.65804e-48 2.32044e-48 1.99814e-48 1.69633e-48 1.41908e-48 1.16925e-48 9.48447e-49 7.57076e-49 5.94446e-49 4.58959e-49 3.48323e-49 2.59783e-49 1.9035e-49 1.36997e-49 9.68312e-50 6.72046e-50 4.57948e-50 3.0636e-50 2.01199e-50 1.29714e-50 8.20946e-51 5.10058e-51 3.11114e-51 1.86311e-51 1.0955e-51 6.32518e-52 3.58649e-52 1.99732e-52 1.0926e-52 5.8717e-53 3.10038e-53 1.60871e-53 8.20377e-54 4.11234e-54 2.02661e-54 9.8203e-55 4.67976e-55 2.19348e-55 1.01141e-55 4.58857e-56 2.04857e-56 9.00157e-57 3.89362e-57 1.65815e-57 6.95348e-58 2.87182e-58 1.16831e-58 4.68243e-59 1.84913e-59 7.19638e-60 2.76036e-60 1.04356e-60 3.8837e-61 1.40785e-61 4.5325e-62 0 
0 3.55187e-86 1.69617e-85 7.68373e-85 3.44199e-84 1.52748e-83 6.71542e-83 2.92464e-82 1.26165e-81 5.39064e-81 2.28108e-80 9.55882e-80 3.9664e-79 1.6296e-78 6.62855e-78 2.66916e-77 1.06392e-76 4.19744e-76 1.63893e-75 6.33285e-75 2.42135e-74 9.16e-74 3.42824e-73 1.26923e-72 4.64796e-72 1.68341e-71 6.02951e-71 2.13546e-70 7.47774e-70 2.58865e-69 8.85834e-69 2.99612e-68 1.00148e-67 3.30791e-67 1.07955e-66 3.4806e-66 1.10851e-65 3.48691e-65 1.08319e-64 3.3226e-64 1.00624e-63 3.00829e-63 8.87713e-63 2.58525e-62 7.42928e-62 2.10643e-61 5.89168e-61 1.6254e-60 4.42229e-60 1.18641e-59 3.13802e-59 8.18172e-59 2.10248e-58 5.32416e-58 1.3284e-57 3.26512e-57 7.90472e-57 1.8846e-56 4.42412e-56 1.02243e-55 2.32576e-55 5.2065e-55 1.14684e-54 2.48516e-54 5.29701e-54 1.11033e-53 2.28845e-53 4.63684e-53 9.23461e-53 1.8074e-52 3.4758e-52 6.56664e-52 1.21856e-51 2.22071e-51 3.97384e-51 6.9812e-51 1.20388e-50 2.03756e-50 3.38411e-50 5.51479e-50 8.8168e-50 1.38274e-49 2.12701e-49 3.20895e-49 4.74772e-49 6.88831e-49 9.80004e-49 1.36717e-48 1.87024e-48 2.50881e-48 3.30037e-48 4.25817e-48 5.389e-48 6.69113e-48 8.15266e-48 9.75072e-48 1.14517e-47 1.32128e-47 1.49847e-47 1.67149e-47 1.83527e-47 1.98528e-47 2.118e-47 2.23115e-47 2.32389e-47 2.39682e-47 2.45179e-47 2.49167e-47 2.51997e-47 2.5404e-47 2.55655e-47 2.57151e-47 2.58771e-47 2.60675e-47 2.62941e-47 2.65575e-47 2.68528e-47 2.7171e-47 2.75015e-47 2.78338e-47 2.81588e-47 2.847e-47 2.87638e-47 2.90394e-47 2.92985e-47 2.95444e-47 2.97812e-47 3.00125e-47 3.02411e-47 3.04675e-47 3.06899e-47 3.09035e-47 3.11012e-47 3.12732e-47 3.14088e-47 3.14965e-47 3.15259e-47 3.14888e-47 3.13801e-47 3.11985e-47 3.09473e-47 3.06337e-47 3.02682e-47 2.98635e-47 2.94332e-47 2.89899e-47 2.85443e-47 2.81036e-47 2.76716e-47 2.7248e-47 2.68294e-47 2.64107e-47 2.59862e-47 2.55513e-47 2.51045e-47 2.46486e-47 2.41909e-47 2.3744e-47 2.33241e-47 2.29502e-47 2.26414e-47 2.24151e-47 2.2284e-47 2.2255e-47 2.23273e-47 2.24925e-47 2.27351e-47 2.3034e-47 2.33651e-47 2.37033e-47 2.40255e-47 2.43131e-47 2.45529e-47 2.4739e-47 2.48718e-47 2.49581e-47 2.50088e-47 2.50373e-47 2.50571e-47 2.50798e-47 2.51132e-47 2.51597e-47 2.52156e-47 2.52714e-47 2.53114e-47 2.53156e-47 2.52608e-47 2.51226e-47 2.48772e-47 2.45037e-47 2.39854e-47 2.33115e-47 2.24779e-47 2.14874e-47 2.03501e-47 1.90824e-47 1.77066e-47 1.6249e-47 1.47394e-47 1.32086e-47 1.16879e-47 1.02067e-47 8.7918e-48 7.46612e-48 6.24767e-48 5.14917e-48 4.17786e-48 3.33563e-48 2.61961e-48 2.02289e-48 1.53547e-48 1.1453e-48 8.39254e-49 6.04052e-49 4.26957e-49 2.9632e-49 2.01911e-49 1.35066e-49 8.86943e-50 5.71745e-50 3.61798e-50 2.24749e-50 1.37061e-50 8.20621e-51 4.82409e-51 2.78465e-51 1.57854e-51 8.7885e-52 4.80622e-52 2.58213e-52 1.36301e-52 7.07007e-53 3.6043e-53 1.80615e-53 8.89796e-54 4.31023e-54 2.0533e-54 9.62088e-55 4.43467e-55 2.01122e-55 8.97604e-56 3.9428e-56 1.70487e-56 7.25799e-57 3.04263e-57 1.2562e-57 5.10877e-58 2.04687e-58 8.08067e-59 3.1438e-59 1.20551e-59 4.55605e-60 1.69508e-60 6.14295e-61 1.97724e-61 0 
0 1.51471e-85 7.23376e-85 3.27711e-84 1.4681e-83 6.51551e-83 2.86469e-82 1.2477e-81 5.38283e-81 2.30011e-80 9.73391e-80 4.07936e-79 1.69289e-78 6.95596e-78 2.82972e-77 1.13959e-76 4.54295e-76 1.79254e-75 7.0001e-75 2.70522e-74 1.03449e-73 3.91407e-73 1.46512e-72 5.42519e-72 1.98706e-71 7.19808e-71 2.57863e-70 9.13441e-70 3.19924e-69 1.10774e-68 3.79149e-68 1.28266e-67 4.2884e-67 1.4168e-66 4.62489e-66 1.4915e-65 4.75136e-65 1.49498e-64 4.64534e-64 1.42532e-63 4.31778e-63 1.29124e-62 3.81145e-62 1.11034e-61 3.19181e-61 9.05269e-61 2.53288e-60 6.9901e-60 1.90248e-59 5.10577e-59 1.35095e-58 3.5236e-58 9.0581e-58 2.29467e-57 5.72751e-57 1.40833e-56 3.41086e-56 8.13525e-56 1.91053e-55 4.4171e-55 1.00519e-54 2.25116e-54 4.9607e-54 1.07542e-53 2.29316e-53 4.80879e-53 9.9153e-53 2.00987e-52 4.00444e-52 7.8407e-52 1.50844e-51 2.85095e-51 5.29251e-51 9.64879e-51 1.72723e-50 3.03547e-50 5.23638e-50 8.86546e-50 1.4729e-49 2.40098e-49 3.83967e-49 6.02334e-49 9.26773e-49 1.3985e-48 2.06953e-48 3.00314e-48 4.27322e-48 5.96216e-48 8.15682e-48 1.09426e-47 1.43958e-47 1.85738e-47 2.35061e-47 2.91845e-47 3.55567e-47 4.25223e-47 4.99341e-47 5.76047e-47 6.53182e-47 7.28463e-47 7.99669e-47 8.64835e-47 9.22426e-47 9.71459e-47 1.01158e-46 1.04305e-46 1.06669e-46 1.08377e-46 1.09581e-46 1.10444e-46 1.11122e-46 1.11751e-46 1.12435e-46 1.13245e-46 1.14214e-46 1.15344e-46 1.16614e-46 1.17985e-46 1.1941e-46 1.20844e-46 1.22247e-46 1.2359e-46 1.24859e-46 1.26049e-46 1.27167e-46 1.28229e-46 1.29251e-46 1.3025e-46 1.31237e-46 1.32215e-46 1.33175e-46 1.34099e-46 1.34953e-46 1.35697e-46 1.36283e-46 1.36663e-46 1.36791e-46 1.36631e-46 1.36162e-46 1.35378e-46 1.34292e-46 1.32937e-46 1.31358e-46 1.29609e-46 1.2775e-46 1.25836e-46 1.23911e-46 1.22009e-46 1.20144e-46 1.18316e-46 1.16509e-46 1.14702e-46 1.12869e-46 1.10991e-46 1.09061e-46 1.07091e-46 1.05112e-46 1.03179e-46 1.01362e-46 9.97436e-47 9.84072e-47 9.74274e-47 9.68603e-47 9.67351e-47 9.70486e-47 9.77645e-47 9.88155e-47 1.00111e-46 1.01545e-46 1.03009e-46 1.04404e-46 1.05649e-46 1.06686e-46 1.0749e-46 1.08064e-46 1.08435e-46 1.08653e-46 1.08774e-46 1.08858e-46 1.08956e-46 1.091e-46 1.09302e-46 1.09546e-46 1.0979e-46 1.09967e-46 1.0999e-46 1.09758e-46 1.09166e-46 1.0811e-46 1.06499e-46 1.04262e-46 1.01349e-46 9.77438e-47 9.34571e-47 8.85321e-47 8.30394e-47 7.70744e-47 7.07516e-47 6.41987e-47 5.75503e-47 5.09413e-47 4.45003e-47 3.83442e-47 3.25727e-47 2.72652e-47 2.24776e-47 1.82423e-47 1.45682e-47 1.14434e-47 8.83822e-48 6.70959e-48 5.00519e-48 3.668e-48 2.64016e-48 1.86615e-48 1.29513e-48 8.82454e-49 5.9026e-49 3.87569e-49 2.49804e-49 1.5805e-49 9.81631e-50 5.98518e-50 3.58269e-50 2.10561e-50 1.21513e-50 6.88633e-51 3.83287e-51 2.09548e-51 1.12544e-51 5.93887e-52 3.07955e-52 1.56942e-52 7.86184e-53 3.87178e-53 1.87486e-53 8.92825e-54 4.18192e-54 1.92693e-54 8.73598e-55 3.89746e-55 1.71138e-55 7.39742e-56 3.14812e-56 1.31927e-56 5.44493e-57 2.21361e-57 8.86599e-58 3.49897e-58 1.36083e-58 5.21652e-59 1.97088e-59 7.33036e-60 2.65574e-60 8.54606e-61 0 