# vtk DataFile Version 3.0
Gray-Scott Simulation Output
ASCII
DATASET STRUCTURED_POINTS
DIMENSIONS 256 256 1
SPACING 1.0 1.0 1.0
ORIGIN 0 0 0
POINT_DATA 65536
SCALARS u double
LOOKUP_TABLE default
0 0 0 0 0 0 0 0 0 0 0 0 0 0 0 0 0 0 0 0 0 0 0 0 0 0 0 0 0 0 0 0 0 0 0 0 0 0 0 0 0 0 0 0 0 0 0 0 0 0 0 0 0 0 0 0 0 0 0 0 0 0 0 0 0 0 0 0 0 0 0 0 0 0 0 0 0 0 0 0 0 0 0 0 0 0 0 0 0 0 0 0 0 0 0 0 0 0 0 0 0 0 0 0 0 0 0 0 0 0 0 0 0 0 0 0 0 0 0 0 0 0 0 0 0 0 0 0 0 0 0 0 0 0 0 0 0 0 0 0 0 0 0 0 0 0 0 0 0 0 0 0 0 0 0 0 0 0 0 0 0 0 0 0 0 0 0 0 0 0 0 0 0 0 0 0 0 0 0 0 0 0 0 0 0 0 0 0 0 0 0 0 0 0 0 0 0 0 0 0 0 0 0 0 0 0 0 0 0 0 0 0 0 0 0 0 0 0 0 0 0 0 0 0 0 0 0 0 0 0 0 0 0 0 0 0 0 0 0 0 0 0 0 0 0 0 0 0 0 0 0 0 0 0 0 0 
0 5.4698e-86 2.37405e-85 9.68487e-85 3.90403e-84 1.55933e-83 6.17171e-83 2.42042e-82 9.40511e-82 3.62069e-81 1.38083e-80 5.21653e-80 1.952e-79 7.23435e-79 2.65528e-78 9.65106e-78 3.47344e-77 1.23774e-76 4.36663e-76 1.52502e-75 5.27203e-75 1.80392e-74 6.10879e-74 2.04716e-73 6.78843e-73 2.22723e-72 7.22939e-72 2.32132e-71 7.37267e-71 2.31594e-70 7.19451e-70 2.21005e-69 6.71249e-69 2.01559e-68 5.98292e-68 1.75537e-67 5.09004e-67 1.45856e-66 4.12979e-66 1.15527e-65 3.19258e-65 8.71471e-65 2.34944e-64 6.25494e-64 1.64429e-63 4.26752e-63 1.09336e-62 2.76492e-62 6.9005e-62 1.69942e-61 4.1294e-61 9.89879e-61 2.3406e-60 5.45839e-60 1.25526e-59 2.84629e-59 6.36264e-59 1.402e-58 3.04475e-58 6.51608e-58 1.37401e-57 2.85433e-57 5.8407e-57 1.17709e-56 2.33604e-56 4.56469e-56 8.78101e-56 1.66272e-55 3.09865e-55 5.68261e-55 1.02538e-54 1.82024e-54 3.1785e-54 5.45894e-54 9.22014e-54 1.53129e-53 2.50045e-53 4.01399e-53 6.33413e-53 9.82451e-53 1.49766e-52 2.24367e-52 3.30311e-52 4.77841e-52 6.7924e-52 9.4871e-52 1.302e-51 1.75576e-51 2.32652e-51 3.02945e-51 3.87682e-51 4.8763e-51 6.02944e-51 7.33024e-51 8.76434e-51 1.03088e-50 1.19325e-50 1.35982e-50 1.52641e-50 1.6887e-50 1.84258e-50 1.98441e-50 2.11137e-50 2.2216e-50 2.31434e-50 2.38994e-50 2.44973e-50 2.49584e-50 2.53092e-50 2.55789e-50 2.57962e-50 2.59869e-50 2.61726e-50 2.63686e-50 2.65848e-50 2.68249e-50 2.70884e-50 2.73708e-50 2.76658e-50 2.79665e-50 2.82662e-50 2.85594e-50 2.88426e-50 2.91139e-50 2.93732e-50 2.96215e-50 2.98604e-50 3.00913e-50 3.03149e-50 3.05306e-50 3.0736e-50 3.09267e-50 3.10969e-50 3.1239e-50 3.13449e-50 3.14064e-50 3.14162e-50 3.13684e-50 3.12599e-50 3.10901e-50 3.08617e-50 3.05799e-50 3.02524e-50 2.98884e-50 2.94978e-50 2.90899e-50 2.86725e-50 2.82517e-50 2.78311e-50 2.74118e-50 2.69932e-50 2.65736e-50 2.61511e-50 2.5725e-50 2.52965e-50 2.48696e-50 2.44514e-50 2.40521e-50 2.36843e-50 2.33616e-50 2.30977e-50 2.29044e-50 2.279e-50 2.27587e-50 2.28091e-50 2.29345e-50 2.31232e-50 2.33596e-50 2.36257e-50 2.3903e-50 2.41742e-50 2.44246e-50 2.46437e-50 2.48255e-50 2.49689e-50 2.50769e-50 2.51558e-50 2.52135e-50 2.52584e-50 2.52974e-50 2.53349e-50 2.53712e-50 2.54026e-50 2.54206e-50 2.54124e-50 2.5362e-50 2.52509e-50 2.50596e-50 2.47694e-50 2.43635e-50 2.38284e-50 2.31555e-50 2.23411e-50 2.13874e-50 2.03026e-50 1.91e-50 1.77981e-50 1.64192e-50 1.49884e-50 1.35326e-50 1.20791e-50 1.06541e-50 9.28191e-51 7.98393e-51 6.77755e-51 5.67588e-51 4.68741e-51 3.81607e-51 3.06152e-51 2.41969e-51 1.88348e-51 1.44354e-51 1.08909e-51 8.08688e-52 5.90884e-52 4.24782e-52 3.00413e-52 2.08987e-52 1.43001e-52 9.62392e-53 6.37011e-53 4.14686e-53 2.65504e-53 1.6719e-53 1.0355e-53 6.30838e-54 3.78036e-54 2.22858e-54 1.29252e-54 7.37564e-55 4.14146e-55 2.28846e-55 1.24456e-55 6.6622e-56 3.51075e-56 1.82144e-56 9.30498e-57 4.68117e-57 2.31946e-57 1.13206e-57 5.44324e-58 2.57875e-58 1.20387e-58 5.53894e-59 2.51193e-59 1.123e-59 4.94996e-60 2.15143e-60 9.22182e-61 3.8987e-61 1.62583e-61 6.6865e-62 2.7067e-62 1.06347e-62 3.65532e-63 0 
0 2.37103e-85 1.02917e-84 4.19881e-84 1.69272e-83 6.76159e-83 2.67645e-82 1.04976e-81 4.0795e-81 1.57066e-80 5.99076e-80 2.26346e-79 8.47081e-79 3.13979e-78 1.15258e-77 4.18981e-77 1.50814e-76 5.37495e-76 1.89652e-75 6.62453e-75 2.29049e-74 7.83865e-74 2.65494e-73 8.89875e-73 2.95138e-72 9.68511e-72 3.14431e-71 1.00982e-70 3.20793e-70 1.00791e-69 3.13176e-69 9.62244e-69 2.92325e-68 8.77986e-68 2.60677e-67 7.65005e-67 2.21884e-66 6.35977e-66 1.80119e-65 5.04002e-65 1.39319e-64 3.80402e-64 1.02583e-63 2.73189e-63 7.18367e-63 1.86498e-62 4.77963e-62 1.20906e-61 3.01845e-61 7.43609e-61 1.80747e-60 4.3342e-60 1.02518e-59 2.39156e-59 5.50172e-59 1.24793e-58 2.7906e-58 6.15118e-58 1.33633e-57 2.86087e-57 6.03469e-57 1.25406e-56 2.56703e-56 5.17519e-56 1.02741e-55 2.00829e-55 3.86461e-55 7.32023e-55 1.36465e-54 2.50345e-54 4.51871e-54 8.02402e-54 1.40157e-53 2.40785e-53 4.068e-53 6.758e-53 1.1038e-52 1.77238e-52 2.79749e-52 4.33996e-52 6.61719e-52 9.91515e-52 1.45994e-51 2.11231e-51 3.00299e-51 4.19479e-51 5.75738e-51 7.76435e-51 1.02888e-50 1.33977e-50 1.7145e-50 2.15646e-50 2.66628e-50 3.24127e-50 3.87502e-50 4.55732e-50 5.27442e-50 6.00972e-50 6.74473e-50 7.46038e-50 8.13843e-50 8.7629e-50 9.32129e-50 9.80548e-50 1.02122e-49 1.05431e-49 1.08041e-49 1.10046e-49 1.11566e-49 1.12729e-49 1.13662e-49 1.1448e-49 1.15277e-49 1.16123e-49 1.17058e-49 1.18101e-49 1.19248e-49 1.20481e-49 1.2177e-49 1.23084e-49 1.24396e-49 1.25679e-49 1.26919e-49 1.28107e-49 1.29242e-49 1.30329e-49 1.31375e-49 1.32387e-49 1.33366e-49 1.34311e-49 1.35211e-49 1.36048e-49 1.36794e-49 1.37417e-49 1.37882e-49 1.38152e-49 1.38195e-49 1.37987e-49 1.37512e-49 1.36768e-49 1.35767e-49 1.34532e-49 1.33096e-49 1.31502e-49 1.2979e-49 1.28003e-49 1.26174e-49 1.24331e-49 1.22489e-49 1.20653e-49 1.1882e-49 1.16983e-49 1.15132e-49 1.13266e-49 1.11388e-49 1.09516e-49 1.07682e-49 1.05931e-49 1.04318e-49 1.02902e-49 1.01744e-49 1.00895e-49 1.00394e-49 1.00257e-49 1.00479e-49 1.0103e-49 1.01859e-49 1.02897e-49 1.04066e-49 1.05284e-49 1.06474e-49 1.07573e-49 1.08534e-49 1.09331e-49 1.09959e-49 1.10432e-49 1.10777e-49 1.11029e-49 1.11225e-49 1.11396e-49 1.11561e-49 1.11721e-49 1.11861e-49 1.11943e-49 1.11911e-49 1.11695e-49 1.11212e-49 1.10378e-49 1.09111e-49 1.07335e-49 1.04992e-49 1.02042e-49 9.84704e-50 9.42855e-50 8.95221e-50 8.4239e-50 7.85166e-50 7.24523e-50 6.61569e-50 5.9748e-50 5.33456e-50 4.70657e-50 4.10157e-50 3.52899e-50 2.99656e-50 2.51012e-50 2.07347e-50 1.68841e-50 1.35483e-50 1.07099e-50 8.33788e-51 6.39118e-51 4.82239e-51 3.58108e-51 2.61673e-51 1.8812e-51 1.33043e-51 9.25519e-52 6.33265e-52 4.26159e-52 2.82052e-52 1.83593e-52 1.17531e-52 7.39997e-53 4.58251e-53 2.79121e-53 1.67234e-53 9.85672e-54 5.71542e-54 3.26069e-54 1.83046e-54 1.01121e-54 5.49796e-55 2.94232e-55 1.55008e-55 8.03988e-56 4.10608e-56 2.0651e-56 1.02294e-56 4.9912e-57 2.39919e-57 1.13629e-57 5.30309e-58 2.4392e-58 1.10586e-58 4.94247e-59 2.1779e-59 9.46317e-60 4.05507e-60 1.71386e-60 7.14507e-61 2.9377e-61 1.18886e-61 4.66986e-62 1.60478e-62 0 
0 9.65858e-85 4.19276e-84 1.71073e-83 6.89738e-83 2.75547e-82 1.09082e-81 4.27892e-81 1.66305e-80 6.40376e-80 2.44282e-79 9.23088e-79 3.45506e-78 1.28084e-77 4.70251e-77 1.70971e-76 6.15519e-76 2.19406e-75 7.74297e-75 2.7051e-74 9.35487e-74 3.20209e-73 1.08476e-72 3.63661e-72 1.20638e-71 3.95966e-71 1.2858e-70 4.13043e-70 1.31243e-69 4.12456e-69 1.2819e-68 3.93968e-68 1.19717e-67 3.59661e-67 1.06814e-66 3.13553e-66 9.097e-66 2.6082e-65 7.38907e-65 2.06822e-64 5.71887e-64 1.562e-63 4.21364e-63 1.1225e-62 2.95269e-62 7.66823e-62 1.96592e-61 4.9748e-61 1.24242e-60 3.06186e-60 7.44515e-60 1.78597e-59 4.22598e-59 9.86227e-59 2.26967e-58 5.15019e-58 1.15213e-57 2.54058e-57 5.52152e-57 1.18254e-56 2.49543e-56 5.18781e-56 1.06235e-55 2.14257e-55 4.25526e-55 8.321e-55 1.60186e-54 3.03535e-54 5.6607e-54 1.03884e-53 1.87578e-53 3.33206e-53 5.82219e-53 1.00057e-52 1.69098e-52 2.81002e-52 4.59105e-52 7.37392e-52 1.16419e-51 1.80655e-51 2.7551e-51 4.12909e-51 6.08096e-51 8.79971e-51 1.2512e-50 1.74797e-50 2.39934e-50 3.23596e-50 4.28828e-50 5.58415e-50 7.146e-50 8.98776e-50 1.11119e-49 1.35071e-49 1.61463e-49 1.89866e-49 2.19706e-49 2.50289e-49 2.80841e-49 3.10569e-49 3.38711e-49 3.64605e-49 3.8773e-49 4.07752e-49 4.2454e-49 4.38164e-49 4.48877e-49 4.57077e-49 4.6326e-49 4.67964e-49 4.7172e-49 4.75007e-49 4.78217e-49 4.81636e-49 4.85439e-49 4.89697e-49 4.94394e-49 4.99451e-49 5.04749e-49 5.10158e-49 5.15556e-49 5.20842e-49 5.2595e-49 5.30845e-49 5.35523e-49 5.40004e-49 5.44316e-49 5.48485e-49 5.52524e-49 5.56422e-49 5.60134e-49 5.63584e-49 5.66664e-49 5.69238e-49 5.71159e-49 5.72277e-49 5.72459e-49 5.716e-49 5.69642e-49 5.66575e-49 5.62445e-49 5.57351e-49 5.51431e-49 5.44852e-49 5.37793e-49 5.30422e-49 5.22885e-49 5.15287e-49 5.07694e-49 5.00127e-49 4.92573e-49 4.84999e-49 4.77371e-49 4.69674e-49 4.61928e-49 4.54206e-49 4.46637e-49 4.39407e-49 4.32742e-49 4.26895e-49 4.22111e-49 4.18606e-49 4.16535e-49 4.15971e-49 4.16891e-49 4.19172e-49 4.22601e-49 4.26896e-49 4.3173e-49 4.36765e-49 4.41685e-49 4.46225e-49 4.50193e-49 4.53482e-49 4.56071e-49 4.58018e-49 4.59435e-49 4.60471e-49 4.61277e-49 4.61982e-49 4.62665e-49 4.63335e-49 4.63923e-49 4.64275e-49 4.64162e-49 4.63289e-49 4.61322e-49 4.57905e-49 4.52695e-49 4.45385e-49 4.35729e-49 4.23563e-49 4.08818e-49 3.91531e-49 3.71841e-49 3.49989e-49 3.26306e-49 3.01194e-49 2.75108e-49 2.48537e-49 2.21977e-49 1.95909e-49 1.70782e-49 1.46987e-49 1.24849e-49 1.04612e-49 8.64378e-50 7.04032e-50 5.65066e-50 4.46774e-50 3.47883e-50 2.667e-50 2.01259e-50 1.49467e-50 1.09224e-50 7.85253e-51 5.55351e-51 3.86324e-51 2.6432e-51 1.77862e-51 1.17706e-51 7.66077e-52 4.90351e-52 3.08683e-52 1.9112e-52 1.16388e-52 6.9718e-53 4.10818e-53 2.38153e-53 1.35833e-53 7.62317e-54 4.21012e-54 2.28837e-54 1.22429e-54 6.44783e-55 3.34326e-55 1.7069e-55 8.58186e-56 4.24957e-56 2.07279e-56 9.96024e-57 4.7157e-57 2.20009e-57 1.01161e-57 4.58476e-58 2.0484e-58 9.02322e-59 3.91936e-59 1.67893e-59 7.09361e-60 2.95635e-60 1.21511e-60 4.91588e-61 1.9304e-61 6.63219e-62 0 
0 3.88764e-84 1.68776e-83 6.88712e-83 2.77707e-82 1.10955e-81 4.39295e-81 1.72342e-80 6.6991e-80 2.57991e-79 9.84285e-79 3.71993e-78 1.39255e-77 5.1632e-77 1.89593e-76 6.89427e-76 2.48245e-75 8.85043e-75 3.12394e-74 1.09159e-73 3.77573e-73 1.29266e-72 4.37999e-72 1.46869e-71 4.87319e-71 1.59987e-70 5.19642e-70 1.66966e-69 5.30661e-69 1.66812e-68 5.18581e-68 1.59419e-67 4.84567e-67 1.45617e-66 4.32585e-66 1.27023e-65 3.68639e-65 1.05725e-64 2.99615e-64 8.38897e-64 2.32041e-63 6.33988e-63 1.71082e-62 4.55917e-62 1.19969e-61 3.11677e-61 7.99345e-61 2.02351e-60 5.05546e-60 1.24636e-59 3.0318e-59 7.27564e-59 1.72226e-58 4.02088e-58 9.25725e-58 2.10146e-57 4.70301e-57 1.0375e-56 2.25577e-56 4.83319e-56 1.02034e-55 2.12208e-55 4.34738e-55 8.77154e-55 1.74279e-54 3.40937e-54 6.56596e-54 1.24468e-53 2.32215e-53 4.26322e-53 7.70082e-53 1.36846e-52 2.392e-52 4.1122e-52 6.95206e-52 1.15565e-51 1.88871e-51 3.03445e-51 4.79212e-51 7.43818e-51 1.13464e-50 1.70087e-50 2.50539e-50 3.62617e-50 5.15671e-50 7.20505e-50 9.89096e-50 1.33408e-49 1.768e-49 2.30232e-49 2.94624e-49 3.70546e-49 4.58092e-49 5.56781e-49 6.65492e-49 7.82447e-49 9.05263e-49 1.03107e-48 1.15667e-48 1.27879e-48 1.39431e-48 1.50047e-48 1.59517e-48 1.67703e-48 1.74552e-48 1.80096e-48 1.84441e-48 1.87753e-48 1.90235e-48 1.92112e-48 1.93604e-48 1.94906e-48 1.9618e-48 1.97545e-48 1.99071e-48 2.00788e-48 2.02689e-48 2.04739e-48 2.06892e-48 2.09092e-48 2.11289e-48 2.13441e-48 2.15522e-48 2.17516e-48 2.19422e-48 2.21248e-48 2.23005e-48 2.24704e-48 2.26351e-48 2.2794e-48 2.29454e-48 2.30862e-48 2.32118e-48 2.3317e-48 2.33954e-48 2.34412e-48 2.34487e-48 2.34138e-48 2.3334e-48 2.3209e-48 2.30406e-48 2.28328e-48 2.25913e-48 2.2323e-48 2.20352e-48 2.17346e-48 2.14274e-48 2.11177e-48 2.08083e-48 2.04999e-48 2.01921e-48 1.98835e-48 1.95726e-48 1.92588e-48 1.89429e-48 1.86279e-48 1.8319e-48 1.80239e-48 1.77517e-48 1.75129e-48 1.73175e-48 1.71743e-48 1.70897e-48 1.70668e-48 1.71045e-48 1.71978e-48 1.73382e-48 1.75138e-48 1.77115e-48 1.79173e-48 1.81184e-48 1.83038e-48 1.84658e-48 1.86e-48 1.87056e-48 1.87848e-48 1.88424e-48 1.88845e-48 1.89172e-48 1.8946e-48 1.89739e-48 1.90016e-48 1.9026e-48 1.90411e-48 1.90372e-48 1.90026e-48 1.89233e-48 1.87849e-48 1.85734e-48 1.8276e-48 1.78826e-48 1.73865e-48 1.67848e-48 1.60787e-48 1.5274e-48 1.43804e-48 1.34113e-48 1.23831e-48 1.13143e-48 1.02249e-48 9.13533e-49 8.0653e-49 7.03321e-49 6.05528e-49 5.1449e-49 4.31227e-49 3.56411e-49 2.90371e-49 2.33112e-49 1.8435e-49 1.43571e-49 1.10084e-49 8.30827e-50 6.1708e-50 4.50962e-50 3.24224e-50 2.293e-50 1.59506e-50 1.09127e-50 7.34261e-51 4.8587e-51 3.16181e-51 2.0235e-51 1.2736e-51 7.88391e-52 4.8001e-52 2.87467e-52 1.6935e-52 9.81472e-53 5.59637e-53 3.13987e-53 1.73356e-53 9.41973e-54 5.03798e-54 2.65244e-54 1.37486e-54 7.01696e-55 3.52673e-55 1.74576e-55 8.51224e-56 4.08889e-56 1.93521e-56 9.02543e-57 4.14844e-57 1.87947e-57 8.3942e-58 3.69635e-58 1.605e-58 6.87291e-59 2.90286e-59 1.20939e-59 4.96912e-60 2.00965e-60 7.8892e-61 2.7098e-61 0 
0 1.55041e-83 6.73152e-83 2.74717e-82 1.10786e-81 4.42685e-81 1.75291e-80 6.87777e-80 2.67382e-79 1.02986e-78 3.9297e-78 1.48538e-77 5.56138e-77 2.06234e-76 7.57418e-76 2.75471e-75 9.92077e-75 3.5376e-74 1.24891e-73 4.36489e-73 1.51008e-72 5.17101e-72 1.7525e-71 5.87775e-71 1.95072e-70 6.40573e-70 2.0811e-69 6.68844e-69 2.1263e-68 6.68573e-68 2.079e-67 6.39291e-67 1.94373e-66 5.8428e-66 1.73624e-65 5.0998e-65 1.48049e-64 4.24738e-64 1.20406e-63 3.37239e-63 9.3313e-63 2.5504e-62 6.88472e-62 1.83537e-61 4.83133e-61 1.25563e-60 3.22149e-60 8.15821e-60 2.03901e-59 5.02895e-59 1.22379e-58 2.93802e-58 6.95761e-58 1.62504e-57 3.74289e-57 8.50022e-57 1.90314e-56 4.20019e-56 9.13614e-56 1.95835e-55 4.13607e-55 8.60588e-55 1.7638e-54 3.56028e-54 7.07686e-54 1.38501e-53 2.66847e-53 5.06062e-53 9.4453e-53 1.73476e-52 3.1348e-52 5.5728e-52 9.74471e-52 1.67587e-51 2.83422e-51 4.71298e-51 7.70504e-51 1.2383e-50 1.95613e-50 3.03707e-50 4.63401e-50 6.94816e-50 1.02368e-49 1.48189e-49 2.10771e-49 2.94532e-49 4.04371e-49 5.45454e-49 7.22904e-49 9.41398e-49 1.20468e-48 1.51506e-48 1.87288e-48 2.27615e-48 2.72022e-48 3.19778e-48 3.69904e-48 4.21222e-48 4.72424e-48 5.22168e-48 5.69175e-48 6.12332e-48 6.50772e-48 6.83944e-48 7.11642e-48 7.33998e-48 7.51455e-48 7.64694e-48 7.74562e-48 7.81971e-48 7.87822e-48 7.92919e-48 7.97923e-48 8.03312e-48 8.09377e-48 8.16234e-48 8.23853e-48 8.32096e-48 8.40762e-48 8.49631e-48 8.58494e-48 8.67183e-48 8.75582e-48 8.83634e-48 8.91333e-48 8.98707e-48 9.05805e-48 9.1267e-48 9.19324e-48 9.25747e-48 9.31869e-48 9.37564e-48 9.42649e-48 9.46905e-48 9.50084e-48 9.51939e-48 9.5225e-48 9.50843e-48 9.47621e-48 9.42567e-48 9.35758e-48 9.27357e-48 9.17594e-48 9.06746e-48 8.95109e-48 8.82962e-48 8.70544e-48 8.58032e-48 8.45532e-48 8.33077e-48 8.20645e-48 8.08179e-48 7.95618e-48 7.82936e-48 7.70165e-48 7.57424e-48 7.44927e-48 7.32981e-48 7.21964e-48 7.12293e-48 7.0438e-48 6.98583e-48 6.9516e-48 6.94234e-48 6.95767e-48 6.99555e-48 7.05247e-48 7.12371e-48 7.20384e-48 7.28726e-48 7.36872e-48 7.44382e-48 7.50939e-48 7.56365e-48 7.60629e-48 7.63826e-48 7.66147e-48 7.67839e-48 7.69159e-48 7.70321e-48 7.71457e-48 7.72587e-48 7.73597e-48 7.74233e-48 7.74113e-48 7.72752e-48 7.6959e-48 7.64039e-48 7.55525e-48 7.43534e-48 7.27653e-48 7.07603e-48 6.83261e-48 6.54678e-48 6.22078e-48 5.85852e-48 5.46539e-48 5.04799e-48 4.61386e-48 4.17108e-48 3.72792e-48 3.29243e-48 2.87211e-48 2.47361e-48 2.10241e-48 1.76272e-48 1.45732e-48 1.18761e-48 9.53654e-49 7.54335e-49 5.87584e-49 4.50602e-49 3.40122e-49 2.52642e-49 1.84643e-49 1.32755e-49 9.38877e-50 6.53083e-50 4.46785e-50 3.00593e-50 1.98884e-50 1.29407e-50 8.28045e-51 5.21079e-51 3.22495e-51 1.96306e-51 1.17535e-51 6.9223e-52 4.01074e-52 2.28627e-52 1.28234e-52 7.07774e-53 3.84461e-53 2.05554e-53 1.08185e-53 5.6057e-54 2.86001e-54 1.43693e-54 7.11037e-55 3.46571e-55 1.66416e-55 7.8733e-56 3.6706e-56 1.68653e-56 7.63809e-57 3.41011e-57 1.50108e-57 6.51549e-58 2.78905e-58 1.17757e-58 4.90422e-59 2.01434e-59 8.14377e-60 3.19594e-60 1.09747e-60 0 
0 6.12687e-83 2.6604e-82 1.08585e-81 4.37943e-81 1.75018e-80 6.93108e-80 2.71987e-79 1.05753e-78 4.07383e-78 1.5547e-77 5.87751e-77 2.20094e-76 8.16314e-76 2.99853e-75 1.09075e-74 3.92895e-74 1.40127e-73 4.948e-73 1.72966e-72 5.98522e-72 2.04998e-71 6.9491e-71 2.33121e-70 7.73869e-70 2.54183e-69 8.26e-69 2.65537e-68 8.44382e-68 2.65572e-67 8.26054e-67 2.54084e-66 7.72754e-66 2.32358e-65 6.90683e-65 2.02936e-64 5.89323e-64 1.69126e-63 4.79606e-63 1.34377e-62 3.71947e-62 1.01696e-61 2.74625e-61 7.32384e-61 1.92862e-60 5.01431e-60 1.28699e-59 3.26052e-59 8.15245e-59 2.01152e-58 4.89706e-58 1.17616e-57 2.78648e-57 6.51099e-57 1.50031e-56 3.40873e-56 7.6353e-56 1.68584e-55 3.66864e-55 7.86734e-55 1.66235e-54 3.46038e-54 7.09533e-54 1.43286e-53 2.8494e-53 5.57904e-53 1.07537e-52 2.04028e-52 3.80967e-52 6.99992e-52 1.26545e-51 2.25052e-51 3.93687e-51 6.77311e-51 1.14589e-50 1.90615e-50 3.11734e-50 5.01157e-50 7.91918e-50 1.22987e-49 1.87705e-49 2.8151e-49 4.14842e-49 6.00647e-49 8.54446e-49 1.19417e-48 1.6397e-48 2.21196e-48 2.93172e-48 3.8179e-48 4.88562e-48 6.14411e-48 7.59468e-48 9.229e-48 1.10281e-47 1.29621e-47 1.4991e-47 1.7067e-47 1.91368e-47 2.11461e-47 2.30429e-47 2.47823e-47 2.63293e-47 2.76619e-47 2.8772e-47 2.96653e-47 3.03601e-47 3.08843e-47 3.12724e-47 3.15616e-47 3.17885e-47 3.19856e-47 3.21798e-47 3.23903e-47 3.26289e-47 3.29002e-47 3.32028e-47 3.35311e-47 3.3877e-47 3.42313e-47 3.45858e-47 3.49334e-47 3.52696e-47 3.5592e-47 3.59002e-47 3.61955e-47 3.64798e-47 3.67547e-47 3.70213e-47 3.72787e-47 3.75242e-47 3.77525e-47 3.79566e-47 3.81274e-47 3.82551e-47 3.83297e-47 3.83424e-47 3.82862e-47 3.81572e-47 3.79547e-47 3.76817e-47 3.7345e-47 3.69536e-47 3.65188e-47 3.60523e-47 3.55655e-47 3.5068e-47 3.45668e-47 3.40662e-47 3.35674e-47 3.30696e-47 3.25704e-47 3.20672e-47 3.15591e-47 3.10472e-47 3.05364e-47 3.00351e-47 2.95558e-47 2.91136e-47 2.87253e-47 2.84076e-47 2.81748e-47 2.80375e-47 2.80005e-47 2.80622e-47 2.82147e-47 2.84436e-47 2.873e-47 2.90521e-47 2.93874e-47 2.97146e-47 3.00161e-47 3.02792e-47 3.04968e-47 3.06676e-47 3.07954e-47 3.08881e-47 3.09556e-47 3.10083e-47 3.10548e-47 3.11006e-47 3.11465e-47 3.11878e-47 3.12145e-47 3.12112e-47 3.11583e-47 3.10334e-47 3.08128e-47 3.04733e-47 2.99941e-47 2.93586e-47 2.85554e-47 2.75793e-47 2.64322e-47 2.51229e-47 2.3667e-47 2.20859e-47 2.04061e-47 1.86577e-47 1.68733e-47 1.50861e-47 1.33286e-47 1.16313e-47 1.0021e-47 8.52013e-48 7.14582e-48 5.90958e-48 4.81723e-48 3.86921e-48 3.06121e-48 2.38497e-48 1.82926e-48 1.38093e-48 1.02585e-48 7.49785e-49 5.39098e-49 3.81263e-49 2.65198e-49 1.81415e-49 1.22043e-49 8.07387e-50 5.25261e-50 3.36046e-50 2.11429e-50 1.30825e-50 7.96158e-51 4.76563e-51 2.806e-51 1.62531e-51 9.26209e-52 5.19334e-52 2.86548e-52 1.556e-52 8.31637e-53 4.37544e-53 2.26635e-53 1.15586e-53 5.80514e-54 2.87148e-54 1.39908e-54 6.7155e-55 3.17596e-55 1.48009e-55 6.79796e-56 3.07754e-56 1.37348e-56 6.04355e-57 2.62223e-57 1.12206e-57 4.73571e-58 1.97156e-58 8.09496e-59 3.27155e-59 1.28346e-59 4.4062e-60 0 
0 2.39901e-82 1.0418e-81 4.25262e-81 1.71538e-80 6.85614e-80 2.71554e-79 1.06577e-78 4.14449e-78 1.59679e-77 6.09479e-77 2.30449e-76 8.63101e-76 3.20174e-75 1.17629e-74 4.2797e-74 1.54187e-73 5.50021e-73 1.94256e-72 6.79201e-72 2.35078e-71 8.05337e-71 2.7306e-70 9.1625e-70 3.04233e-69 9.9953e-69 3.24894e-68 1.04472e-67 3.32304e-67 1.04544e-66 3.25276e-66 1.0008e-65 3.04471e-65 9.15791e-65 2.72306e-64 8.00349e-64 2.32497e-63 6.67458e-63 1.89343e-62 5.30693e-62 1.46946e-61 4.01922e-61 1.08578e-60 2.89674e-60 7.63112e-60 1.98484e-59 5.09644e-59 1.29169e-58 3.23103e-58 7.97556e-58 1.9425e-57 4.66746e-57 1.10627e-56 2.58612e-56 5.9618e-56 1.35515e-55 3.03683e-55 6.7083e-55 1.4605e-54 3.13348e-54 6.62405e-54 1.37952e-53 2.82996e-53 5.7176e-53 1.13754e-52 2.22829e-52 4.29705e-52 8.15636e-52 1.52366e-51 2.80082e-51 5.06552e-51 9.01251e-51 1.57721e-50 2.71457e-50 4.59433e-50 7.64538e-50 1.25078e-49 2.01148e-49 3.1795e-49 4.93933e-49 7.54056e-49 1.13118e-48 1.66732e-48 2.41458e-48 3.43544e-48 4.80206e-48 6.59439e-48 8.89662e-48 1.17922e-47 1.5357e-47 1.96516e-47 2.47126e-47 3.05447e-47 3.71137e-47 4.43423e-47 5.21095e-47 6.0254e-47 6.85819e-47 7.68793e-47 8.49267e-47 9.2516e-47 9.94663e-47 1.05638e-46 1.10945e-46 1.15354e-46 1.18891e-46 1.2163e-46 1.23685e-46 1.25195e-46 1.26311e-46 1.2718e-46 1.27933e-46 1.28677e-46 1.2949e-46 1.30419e-46 1.31482e-46 1.32673e-46 1.33969e-46 1.35337e-46 1.3674e-46 1.38145e-46 1.39524e-46 1.40858e-46 1.42137e-46 1.43361e-46 1.44533e-46 1.45661e-46 1.46753e-46 1.47812e-46 1.48835e-46 1.4981e-46 1.50718e-46 1.5153e-46 1.52209e-46 1.52718e-46 1.53016e-46 1.53067e-46 1.52845e-46 1.52333e-46 1.51528e-46 1.50444e-46 1.49105e-46 1.4755e-46 1.45822e-46 1.43968e-46 1.42034e-46 1.40058e-46 1.38068e-46 1.3608e-46 1.341e-46 1.32124e-46 1.30142e-46 1.28144e-46 1.26126e-46 1.24092e-46 1.22061e-46 1.20068e-46 1.18161e-46 1.16401e-46 1.14856e-46 1.13591e-46 1.12665e-46 1.12118e-46 1.11971e-46 1.12218e-46 1.12826e-46 1.13739e-46 1.14881e-46 1.16165e-46 1.17501e-46 1.18804e-46 1.20004e-46 1.21051e-46 1.21916e-46 1.22593e-46 1.231e-46 1.23467e-46 1.23734e-46 1.23942e-46 1.24127e-46 1.2431e-46 1.24495e-46 1.24663e-46 1.24774e-46 1.24767e-46 1.24564e-46 1.24076e-46 1.23207e-46 1.21866e-46 1.19968e-46 1.17448e-46 1.14258e-46 1.10378e-46 1.05815e-46 1.00603e-46 9.48021e-47 8.84981e-47 8.17957e-47 7.48148e-47 6.76849e-47 6.05388e-47 5.35068e-47 4.67107e-47 4.02586e-47 3.42411e-47 2.87276e-47 2.37651e-47 1.93779e-47 1.55684e-47 1.23201e-47 9.60039e-48 7.36467e-48 5.5604e-48 4.13104e-48 3.01953e-48 2.17111e-48 1.53546e-48 1.06799e-48 7.30531e-49 4.91402e-49 3.2505e-49 2.11435e-49 1.35245e-49 8.50745e-50 5.26292e-50 3.20206e-50 1.91617e-50 1.12792e-50 6.53127e-51 3.72077e-51 2.08559e-51 1.15036e-51 6.24443e-52 3.33626e-52 1.75464e-52 9.08512e-53 4.63173e-53 2.32532e-53 1.14976e-53 5.59978e-54 2.68681e-54 1.27016e-54 5.91699e-55 2.71656e-55 1.22934e-55 5.48425e-56 2.41222e-56 1.04623e-56 4.4751e-57 1.88801e-57 7.85711e-58 3.22481e-58 1.30282e-58 5.10933e-59 1.75359e-59 0 
0 9.30674e-82 4.04199e-81 1.65014e-80 6.657e-80 2.66107e-79 1.05413e-78 4.13775e-78 1.6093e-77 6.20126e-77 2.36735e-76 8.95262e-76 3.35361e-75 1.24427e-74 4.5722e-74 1.66382e-73 5.99551e-73 2.13918e-72 7.55676e-72 2.64274e-71 9.14882e-71 3.13496e-70 1.0632e-69 3.56845e-69 1.18517e-68 3.89479e-68 1.26633e-67 4.07312e-67 1.29594e-66 4.07826e-66 1.26928e-65 3.90649e-65 1.18883e-64 3.57693e-64 1.06393e-63 3.12812e-63 9.09015e-63 2.61054e-62 7.4082e-62 2.07715e-61 5.75368e-61 1.57433e-60 4.25469e-60 1.13555e-59 2.9927e-59 7.78718e-59 2.00034e-58 5.07202e-58 1.26927e-57 3.13447e-57 7.63761e-57 1.83601e-56 4.35367e-56 1.01822e-55 2.34841e-55 5.34061e-55 1.19737e-54 2.64624e-54 5.76406e-54 1.23727e-53 2.6168e-53 5.4524e-53 1.11905e-52 2.262e-52 4.5025e-52 8.82406e-52 1.70244e-51 3.23298e-51 6.04223e-51 1.1112e-50 2.0106e-50 3.57881e-50 6.26569e-50 1.07885e-49 1.82665e-49 3.04088e-49 4.97669e-49 8.00623e-49 1.26595e-48 1.96725e-48 3.00414e-48 4.50776e-48 6.64586e-48 9.62645e-48 1.36989e-47 1.91513e-47 2.63025e-47 3.54884e-47 4.70414e-47 6.12635e-47 7.83949e-47 9.85801e-47 1.21835e-46 1.4802e-46 1.76824e-46 2.07759e-46 2.40179e-46 2.73308e-46 3.0629e-46 3.38248e-46 3.68353e-46 3.95887e-46 4.20297e-46 4.4124e-46 4.58595e-46 4.72469e-46 4.83163e-46 4.91136e-46 4.96948e-46 5.01202e-46 5.04485e-46 5.07322e-46 5.1014e-46 5.13245e-46 5.16824e-46 5.20946e-46 5.25588e-46 5.30656e-46 5.36018e-46 5.41528e-46 5.47049e-46 5.5247e-46 5.57717e-46 5.62749e-46 5.67563e-46 5.72175e-46 5.76615e-46 5.80913e-46 5.85082e-46 5.8911e-46 5.92953e-46 5.96531e-46 5.99732e-46 6.02414e-46 6.04422e-46 6.056e-46 6.05806e-46 6.04934e-46 6.02918e-46 5.9975e-46 5.95478e-46 5.90205e-46 5.84076e-46 5.77268e-46 5.69967e-46 5.62351e-46 5.54569e-46 5.46735e-46 5.38911e-46 5.3112e-46 5.23343e-46 5.15543e-46 5.07679e-46 4.99732e-46 4.9172e-46 4.83718e-46 4.7586e-46 4.6834e-46 4.61399e-46 4.55301e-46 4.5031e-46 4.46654e-46 4.44498e-46 4.43921e-46 4.449e-46 4.47306e-46 4.50915e-46 4.55428e-46 4.605e-46 4.65776e-46 4.70922e-46 4.75659e-46 4.79786e-46 4.83193e-46 4.85861e-46 4.87852e-46 4.89291e-46 4.90336e-46 4.91154e-46 4.91881e-46 4.92606e-46 4.93343e-46 4.9402e-46 4.94479e-46 4.94479e-46 4.93711e-46 4.9182e-46 4.88432e-46 4.8318e-46 4.75735e-46 4.65828e-46 4.53275e-46 4.37992e-46 4.19999e-46 3.99429e-46 3.7652e-46 3.51605e-46 3.25094e-46 2.97462e-46 2.69219e-46 2.40891e-46 2.12994e-46 1.86013e-46 1.60381e-46 1.36459e-46 1.14526e-46 9.47731e-47 7.73001e-47 6.21205e-47 4.91709e-47 3.8324e-47 2.94041e-47 2.22033e-47 1.64973e-47 1.20592e-47 8.67109e-48 6.13233e-48 4.26516e-48 2.91727e-48 1.96214e-48 1.29773e-48 8.43995e-49 5.39763e-49 3.39459e-49 2.09948e-49 1.27703e-49 7.63991e-50 4.49576e-50 2.60247e-50 1.48211e-50 8.30475e-51 4.57906e-51 2.48472e-51 1.32703e-51 6.97659e-52 3.61091e-52 1.84017e-52 9.23468e-53 4.56425e-53 2.22207e-53 1.06572e-53 5.03603e-54 2.34504e-54 1.07619e-54 4.86812e-55 2.17085e-55 9.54446e-56 4.13794e-56 1.76924e-56 7.46128e-57 3.10386e-57 1.27342e-57 5.14265e-58 2.01611e-58 6.91759e-59 0 
0 3.57686e-81 1.55363e-80 6.34348e-80 2.55943e-79 1.02325e-78 4.05398e-78 1.59154e-77 6.19094e-77 2.386e-76 9.11014e-76 3.44579e-75 1.29101e-74 4.79085e-74 1.76078e-73 6.40876e-73 2.30985e-72 8.24322e-72 2.9126e-71 1.01882e-70 3.52784e-70 1.20915e-69 4.10178e-69 1.37704e-68 4.5747e-68 1.50377e-67 4.89063e-67 1.57351e-66 5.00787e-66 1.57643e-65 4.90785e-65 1.51098e-64 4.59973e-64 1.38442e-63 4.11926e-63 1.21155e-62 3.52196e-62 1.01182e-61 2.87241e-61 8.05688e-61 2.23262e-60 6.11135e-60 1.65228e-59 4.41168e-59 1.16317e-58 3.02793e-58 7.78143e-58 1.97391e-57 4.94192e-57 1.22097e-56 2.97646e-56 7.15847e-56 1.69827e-55 3.97377e-55 9.1695e-55 2.08629e-54 4.67981e-54 1.03477e-53 2.25507e-53 4.84298e-53 1.0248e-52 2.13636e-52 4.38687e-52 8.8719e-52 1.76683e-51 3.46439e-51 6.68722e-51 1.27054e-50 2.3757e-50 4.37113e-50 7.9128e-50 1.4091e-49 2.46811e-49 4.25152e-49 7.20146e-49 1.19933e-48 1.96358e-48 3.16005e-48 4.99842e-48 7.76992e-48 1.18688e-47 1.78142e-47 2.62703e-47 3.80606e-47 5.41724e-47 7.57458e-47 1.04043e-46 1.40392e-46 1.86107e-46 2.42379e-46 3.10153e-46 3.89993e-46 4.81951e-46 5.85462e-46 6.99279e-46 8.2146e-46 9.49431e-46 1.08011e-45 1.2101e-45 1.33593e-45 1.45433e-45 1.56245e-45 1.65815e-45 1.74006e-45 1.80775e-45 1.86166e-45 1.903e-45 1.93361e-45 1.95573e-45 1.97174e-45 1.98398e-45 1.99451e-45 2.00504e-45 2.01676e-45 2.03039e-45 2.04622e-45 2.06415e-45 2.08378e-45 2.10461e-45 2.12604e-45 2.14754e-45 2.16867e-45 2.18912e-45 2.20874e-45 2.22751e-45 2.2455e-45 2.26282e-45 2.27959e-45 2.29586e-45 2.31158e-45 2.32659e-45 2.34058e-45 2.35309e-45 2.36358e-45 2.37144e-45 2.37606e-45 2.37688e-45 2.37349e-45 2.36563e-45 2.35326e-45 2.33658e-45 2.31598e-45 2.29205e-45 2.26546e-45 2.23695e-45 2.20722e-45 2.17685e-45 2.14628e-45 2.11576e-45 2.08536e-45 2.05503e-45 2.0246e-45 1.99392e-45 1.9629e-45 1.93162e-45 1.90036e-45 1.86966e-45 1.84026e-45 1.81311e-45 1.78926e-45 1.76974e-45 1.75544e-45 1.74701e-45 1.74476e-45 1.74861e-45 1.75804e-45 1.77219e-45 1.78987e-45 1.80974e-45 1.8304e-45 1.85054e-45 1.86907e-45 1.8852e-45 1.89851e-45 1.90891e-45 1.91667e-45 1.92226e-45 1.92632e-45 1.92949e-45 1.93233e-45 1.93518e-45 1.9381e-45 1.94081e-45 1.94269e-45 1.9428e-45 1.93992e-45 1.93268e-45 1.91959e-45 1.89923e-45 1.87028e-45 1.8317e-45 1.78274e-45 1.72307e-45 1.65275e-45 1.5723e-45 1.48262e-45 1.38501e-45 1.28107e-45 1.17265e-45 1.06174e-45 9.50409e-46 8.40692e-46 7.34498e-46 6.33536e-46 5.39243e-46 4.52735e-46 3.74776e-46 3.05774e-46 2.45796e-46 1.94605e-46 1.51708e-46 1.16418e-46 8.79202e-47 6.53322e-47 4.77595e-47 3.43419e-47 2.42868e-47 1.68912e-47 1.15523e-47 7.7691e-48 5.13764e-48 3.34076e-48 2.13611e-48 1.3431e-48 8.30475e-49 5.05009e-49 3.02036e-49 1.7768e-49 1.02821e-49 5.85361e-50 3.27881e-50 1.8072e-50 9.8026e-51 5.23331e-51 2.7502e-51 1.42286e-51 7.24808e-52 3.63586e-52 1.79627e-52 8.74126e-53 4.19059e-53 1.9794e-53 9.21318e-54 4.22631e-54 1.91095e-54 8.51791e-55 3.74344e-55 1.62226e-55 6.93333e-56 2.92273e-56 1.21534e-56 4.9842e-57 2.01205e-57 7.88505e-58 2.7047e-58 0 