# vtk DataFile Version 3.0
Gray-Scott Simulation Output
ASCII
DATASET STRUCTURED_POINTS
DIMENSIONS 256 256 1
SPACING 1.0 1.0 1.0
ORIGIN 0 0 0
POINT_DATA 65536
SCALARS u double
LOOKUP_TABLE default
0 0 0 0 0 0 0 0 0 0 0 0 0 0 0 0 0 0 0 0 0 0 0 0 0 0 0 0 0 0 0 0 0 0 0 0 0 0 0 0 0 0 0 0 0 0 0 0 0 0 0 0 0 0 0 0 0 0 0 0 0 0 0 0 0 0 0 0 0 0 0 0 0 0 0 0 0 0 0 0 0 0 0 0 0 0 0 0 0 0 0 0 0 0 0 0 0 0 0 0 0 0 0 0 0 0 0 0 0 0 0 0 0 0 0 0 0 0 0 0 0 0 0 0 0 0 0 0 0 0 0 0 0 0 0 0 0 0 0 0 0 0 0 0 0 0 0 0 0 0 0 0 0 0 0 0 0 0 0 0 0 0 0 0 0 0 0 0 0 0 0 0 0 0 0 0 0 0 0 0 0 0 0 0 0 0 0 0 0 0 0 0 0 0 0 0 0 0 0 0 0 0 0 0 0 0 0 0 0 0 0 0 0 0 0 0 0 0 0 0 0 0 0 0 0 0 0 0 0 0 0 0 0 0 0 0 0 0 0 0 0 0 0 0 0 0 0 0 0 0 0 0 0 0 0 0 
0 9.35613e-78 3.3792e-77 1.11997e-76 3.65737e-76 1.1838e-75 3.79961e-75 1.20933e-74 3.81658e-74 1.19427e-73 3.70509e-73 1.13957e-72 3.4746e-72 1.05017e-71 3.14614e-71 9.3419e-71 2.74917e-70 8.0177e-70 2.31713e-69 6.63553e-69 1.88276e-68 5.29274e-68 1.47401e-67 4.06654e-67 1.11128e-66 3.00791e-66 8.06338e-66 2.14066e-65 5.62765e-65 1.46494e-64 3.77566e-64 9.63414e-64 2.43358e-63 6.08497e-63 1.50596e-62 3.68875e-62 8.94164e-62 2.14483e-61 5.09057e-61 1.19538e-60 2.77695e-60 6.38146e-60 1.45051e-59 3.26088e-59 7.24971e-59 1.59382e-58 3.46457e-58 7.44583e-58 1.58194e-57 3.32229e-57 6.89628e-57 1.41476e-56 2.86811e-56 5.74532e-56 1.13709e-55 2.2233e-55 4.29415e-55 8.19202e-55 1.54347e-54 2.87179e-54 5.27612e-54 9.57062e-54 1.7139e-53 3.02979e-53 5.28657e-53 9.10396e-53 1.54718e-52 2.59456e-52 4.293e-52 7.00797e-52 1.12855e-51 1.79269e-51 2.80876e-51 4.34024e-51 6.61408e-51 9.93919e-51 1.47275e-50 2.15169e-50 3.09939e-50 4.40149e-50 6.16217e-50 8.50477e-50 1.15712e-49 1.55194e-49 2.05188e-49 2.67434e-49 3.43621e-49 4.35273e-49 5.43611e-49 6.69416e-49 8.12887e-49 9.73529e-49 1.15006e-48 1.34039e-48 1.54163e-48 1.75018e-48 1.96191e-48 2.17235e-48 2.37695e-48 2.57135e-48 2.75167e-48 2.91473e-48 3.05825e-48 3.18096e-48 3.28263e-48 3.36405e-48 3.42687e-48 3.47342e-48 3.50653e-48 3.52922e-48 3.54454e-48 3.55531e-48 3.56402e-48 3.57265e-48 3.58268e-48 3.59507e-48 3.61032e-48 3.6285e-48 3.6494e-48 3.67262e-48 3.69762e-48 3.72384e-48 3.75077e-48 3.77794e-48 3.80496e-48 3.83152e-48 3.85734e-48 3.88217e-48 3.90575e-48 3.92776e-48 3.94785e-48 3.96558e-48 3.98046e-48 3.99196e-48 3.99956e-48 4.00276e-48 4.00112e-48 3.99436e-48 3.98231e-48 3.96498e-48 3.94256e-48 3.91539e-48 3.88394e-48 3.84878e-48 3.81052e-48 3.76978e-48 3.72711e-48 3.68303e-48 3.63795e-48 3.59219e-48 3.54605e-48 3.49978e-48 3.45365e-48 3.40801e-48 3.3633e-48 3.3201e-48 3.27909e-48 3.24108e-48 3.20694e-48 3.17752e-48 3.15362e-48 3.13586e-48 3.12464e-48 3.12008e-48 3.12199e-48 3.12987e-48 3.14291e-48 3.16009e-48 3.18027e-48 3.20222e-48 3.22478e-48 3.24692e-48 3.2678e-48 3.28684e-48 3.3037e-48 3.31828e-48 3.33063e-48 3.34094e-48 3.34942e-48 3.35619e-48 3.36123e-48 3.3643e-48 3.36493e-48 3.36232e-48 3.35543e-48 3.343e-48 3.32359e-48 3.29567e-48 3.25773e-48 3.20836e-48 3.14634e-48 3.07075e-48 2.98103e-48 2.87701e-48 2.75902e-48 2.6278e-48 2.48457e-48 2.33097e-48 2.16899e-48 2.00094e-48 1.82932e-48 1.65673e-48 1.48579e-48 1.31901e-48 1.15871e-48 1.00691e-48 8.65289e-49 7.35117e-49 6.17244e-49 5.12096e-49 4.19698e-49 3.39719e-49 2.71528e-49 2.14263e-49 1.66897e-49 1.2831e-49 9.73492e-50 7.28821e-50 5.38381e-50 3.92383e-50 2.82138e-50 2.00136e-50 1.40052e-50 9.66838e-51 6.58435e-51 4.42357e-51 2.93184e-51 1.91703e-51 1.23666e-51 7.87094e-52 4.94283e-52 3.06282e-52 1.87279e-52 1.13008e-52 6.72986e-53 3.95562e-53 2.29491e-53 1.3143e-53 7.43076e-54 4.14782e-54 2.28607e-54 1.24417e-54 6.68696e-55 3.54956e-55 1.86104e-55 9.6385e-56 4.93148e-56 2.49285e-56 1.2451e-56 6.14493e-57 2.99635e-57 1.44229e-57 6.82255e-58 3.10109e-58 1.19388e-58 0 
0 3.37406e-77 1.21884e-76 4.04043e-76 1.31973e-75 4.2726e-75 1.37168e-74 4.36676e-74 1.37845e-73 4.31445e-73 1.33885e-72 4.11895e-72 1.25621e-71 3.79781e-71 1.13808e-70 3.38026e-70 9.9504e-70 2.90279e-69 8.39161e-69 2.40382e-68 6.8227e-68 1.91857e-67 5.34489e-67 1.47505e-66 4.03228e-66 1.09179e-65 2.92781e-65 7.7755e-65 2.04486e-64 5.32495e-64 1.37294e-63 3.50458e-63 8.85598e-63 2.21523e-62 5.48464e-62 1.34397e-61 3.25915e-61 7.82095e-61 1.85702e-60 4.36255e-60 1.01389e-59 2.33096e-59 5.30064e-59 1.19216e-58 2.65166e-58 5.83221e-58 1.26837e-57 2.72716e-57 5.79681e-57 1.21798e-56 2.52944e-56 5.19156e-56 1.05298e-55 2.11031e-55 4.17864e-55 8.17419e-55 1.57955e-54 3.01477e-54 5.68286e-54 1.05786e-53 1.94444e-53 3.52876e-53 6.3222e-53 1.11813e-52 1.95185e-52 3.36276e-52 5.71733e-52 9.5918e-52 1.58772e-51 2.59286e-51 4.17708e-51 6.63774e-51 1.04036e-50 1.60816e-50 2.45145e-50 3.68496e-50 5.46175e-50 7.98164e-50 1.14998e-49 1.63344e-49 2.28725e-49 3.15724e-49 4.29611e-49 5.76249e-49 7.61927e-49 9.9309e-49 1.27599e-48 1.61625e-48 2.01837e-48 2.48518e-48 3.01734e-48 3.61292e-48 4.26706e-48 4.97188e-48 5.71653e-48 6.48759e-48 7.2696e-48 8.04592e-48 8.79962e-48 9.51457e-48 1.01764e-47 1.07734e-47 1.12973e-47 1.17434e-47 1.21113e-47 1.24039e-47 1.26275e-47 1.27911e-47 1.29052e-47 1.29811e-47 1.30303e-47 1.30633e-47 1.30892e-47 1.31154e-47 1.31474e-47 1.31887e-47 1.32411e-47 1.33048e-47 1.33789e-47 1.34619e-47 1.35518e-47 1.36464e-47 1.37439e-47 1.38424e-47 1.39406e-47 1.40371e-47 1.41311e-47 1.42215e-47 1.43074e-47 1.43876e-47 1.44609e-47 1.45256e-47 1.45799e-47 1.46219e-47 1.46497e-47 1.46615e-47 1.46556e-47 1.4631e-47 1.45871e-47 1.4524e-47 1.44423e-47 1.43432e-47 1.42285e-47 1.41003e-47 1.39609e-47 1.38123e-47 1.36568e-47 1.34961e-47 1.33318e-47 1.31651e-47 1.29969e-47 1.28283e-47 1.26601e-47 1.24937e-47 1.23307e-47 1.21731e-47 1.20235e-47 1.18849e-47 1.17603e-47 1.16529e-47 1.15657e-47 1.15009e-47 1.146e-47 1.14434e-47 1.14505e-47 1.14794e-47 1.15271e-47 1.159e-47 1.16638e-47 1.17441e-47 1.18266e-47 1.19074e-47 1.19837e-47 1.20532e-47 1.21147e-47 1.21679e-47 1.2213e-47 1.22507e-47 1.22818e-47 1.23068e-47 1.23256e-47 1.23374e-47 1.23404e-47 1.23318e-47 1.23079e-47 1.22638e-47 1.21945e-47 1.20943e-47 1.19576e-47 1.17792e-47 1.15547e-47 1.12805e-47 1.09545e-47 1.05761e-47 1.01463e-47 9.66767e-48 9.14468e-48 8.58319e-48 7.99046e-48 7.37485e-48 6.74552e-48 6.11203e-48 5.484e-48 4.8707e-48 4.2807e-48 3.72152e-48 3.19943e-48 2.71919e-48 2.28403e-48 1.89559e-48 1.55405e-48 1.25826e-48 1.00595e-48 7.9397e-49 6.18566e-49 4.75625e-49 3.60902e-49 2.70219e-49 1.99622e-49 1.45493e-49 1.04614e-49 7.4206e-50 5.19252e-50 3.58429e-50 2.4407e-50 1.63951e-50 1.08645e-50 7.10263e-51 4.58093e-51 2.91495e-51 1.8301e-51 1.13373e-51 6.9304e-52 4.18072e-52 2.48896e-52 1.46248e-52 8.48202e-53 4.85603e-53 2.74455e-53 1.53145e-53 8.43754e-54 4.59035e-54 2.46622e-54 1.30862e-54 6.85847e-55 3.5507e-55 1.81599e-55 9.17618e-56 4.5814e-56 2.26017e-56 1.10166e-56 5.30075e-57 2.5065e-57 1.1389e-57 4.3835e-58 0 
0 1.11626e-76 4.0332e-76 1.33733e-75 4.36925e-75 1.41491e-74 4.54366e-74 1.44688e-73 4.56867e-73 1.43037e-72 4.44001e-72 1.36638e-71 4.16851e-71 1.26064e-70 3.77893e-70 1.12277e-69 3.30619e-69 9.64834e-69 2.7902e-68 7.99556e-68 2.27019e-67 6.38628e-67 1.77981e-66 4.91372e-66 1.34378e-65 3.63992e-65 9.76505e-65 2.59443e-64 6.82594e-64 1.77829e-63 4.58701e-63 1.17141e-62 2.96149e-62 7.41129e-62 1.83581e-61 4.50065e-61 1.09195e-60 2.62163e-60 6.22796e-60 1.46382e-59 3.40379e-59 7.82943e-59 1.78136e-58 4.00857e-58 8.9208e-58 1.96316e-57 4.27172e-57 9.18983e-57 1.95446e-56 4.10887e-56 8.53786e-56 1.75334e-55 3.55823e-55 7.13521e-55 1.41365e-54 2.76694e-54 5.34976e-54 1.02165e-53 1.9269e-53 3.58893e-53 6.60045e-53 1.19851e-52 2.14845e-52 3.80175e-52 6.64005e-52 1.14458e-51 1.947e-51 3.26807e-51 5.41225e-51 8.84276e-51 1.42522e-50 2.26579e-50 3.55276e-50 5.49395e-50 8.37805e-50 1.25982e-49 1.86789e-49 2.7305e-49 3.93513e-49 5.59086e-49 7.83037e-49 1.08107e-48 1.47125e-48 1.97364e-48 2.60976e-48 3.40165e-48 4.37064e-48 5.53585e-48 6.91248e-48 8.51e-48 1.03304e-47 1.23666e-47 1.46016e-47 1.70079e-47 1.95479e-47 2.21753e-47 2.48368e-47 2.74751e-47 3.00321e-47 3.24528e-47 3.46881e-47 3.66985e-47 3.8456e-47 3.99457e-47 4.11663e-47 4.21289e-47 4.28561e-47 4.33788e-47 4.37337e-47 4.39604e-47 4.40977e-47 4.41821e-47 4.4245e-47 4.43114e-47 4.44001e-47 4.45226e-47 4.46849e-47 4.48875e-47 4.51274e-47 4.53989e-47 4.56949e-47 4.60083e-47 4.6332e-47 4.666e-47 4.69873e-47 4.73098e-47 4.76239e-47 4.79264e-47 4.8214e-47 4.84829e-47 4.87285e-47 4.89455e-47 4.91279e-47 4.92691e-47 4.93627e-47 4.94024e-47 4.93831e-47 4.93009e-47 4.91541e-47 4.89426e-47 4.86688e-47 4.83368e-47 4.79525e-47 4.75229e-47 4.70555e-47 4.65578e-47 4.60368e-47 4.54985e-47 4.49481e-47 4.43896e-47 4.38263e-47 4.32614e-47 4.2698e-47 4.21404e-47 4.1594e-47 4.10656e-47 4.05639e-47 4.00987e-47 3.96807e-47 3.93205e-47 3.90279e-47 3.88105e-47 3.86735e-47 3.86183e-47 3.86426e-47 3.874e-47 3.89009e-47 3.91126e-47 3.93609e-47 3.96307e-47 3.99078e-47 4.01795e-47 4.04356e-47 4.06688e-47 4.08753e-47 4.10536e-47 4.12051e-47 4.13319e-47 4.14368e-47 4.15216e-47 4.15864e-47 4.16283e-47 4.16416e-47 4.16167e-47 4.15409e-47 4.13987e-47 4.11724e-47 4.08429e-47 4.03916e-47 3.98006e-47 3.90546e-47 3.81416e-47 3.70542e-47 3.57896e-47 3.43509e-47 3.27467e-47 3.09912e-47 2.91039e-47 2.71091e-47 2.50346e-47 2.29114e-47 2.07716e-47 1.86478e-47 1.65715e-47 1.4572e-47 1.26751e-47 1.09023e-47 9.27024e-48 7.7901e-48 6.4679e-48 5.30452e-48 4.29632e-48 3.43582e-48 2.7125e-48 2.11372e-48 1.62556e-48 1.23364e-48 9.23764e-49 6.82469e-49 4.97425e-49 3.57662e-49 2.53691e-49 1.77505e-49 1.22515e-49 8.34145e-50 5.60234e-50 3.7118e-50 2.42604e-50 1.56432e-50 9.95151e-51 6.24609e-51 3.86819e-51 2.36383e-51 1.42548e-51 8.48341e-52 4.98288e-52 2.88883e-52 1.65322e-52 9.33988e-53 5.20945e-53 2.86892e-53 1.56012e-53 8.37824e-54 4.44364e-54 2.32786e-54 1.2046e-54 6.15804e-55 3.11021e-55 1.55212e-55 7.65359e-56 3.72879e-56 1.79332e-56 8.47606e-57 3.84978e-57 1.48129e-57 0 
0 3.63849e-76 1.31492e-75 4.36112e-75 1.42523e-74 4.61664e-74 1.48295e-73 4.72368e-73 1.49199e-72 4.67258e-72 1.45087e-71 4.46634e-71 1.36302e-70 4.12341e-70 1.23647e-69 3.67499e-69 1.08255e-68 3.16031e-68 9.14267e-68 2.6209e-67 7.44443e-67 2.09501e-66 5.841e-66 1.61325e-65 4.41366e-65 1.19605e-64 3.2101e-64 8.53251e-64 2.24591e-63 5.8537e-63 1.51063e-62 3.85962e-62 9.76231e-62 2.44426e-61 6.05755e-61 1.48581e-60 3.60672e-60 8.66374e-60 2.05925e-59 4.84264e-59 1.12665e-58 2.59295e-58 5.90277e-58 1.32903e-57 2.95934e-57 6.51619e-57 1.4187e-56 3.05385e-56 6.49862e-56 1.36701e-55 2.8422e-55 5.84025e-55 1.18592e-54 2.37952e-54 4.71722e-54 9.23855e-54 1.7873e-53 3.41528e-53 6.4453e-53 1.20117e-52 2.2104e-52 4.01599e-52 7.20324e-52 1.27536e-51 2.22877e-51 3.84399e-51 6.54242e-51 1.09873e-50 1.82056e-50 2.976e-50 4.79884e-50 7.63268e-50 1.19734e-49 1.85235e-49 2.82589e-49 4.25094e-49 6.30493e-49 9.21962e-49 1.3291e-48 1.88882e-48 2.64601e-48 3.65383e-48 4.97332e-48 6.67236e-48 8.8236e-48 1.15014e-47 1.47775e-47 1.87162e-47 2.33681e-47 2.87644e-47 3.49106e-47 4.17815e-47 4.93182e-47 5.74259e-47 6.59762e-47 7.48106e-47 8.37478e-47 9.25935e-47 1.01151e-46 1.09235e-46 1.1668e-46 1.23354e-46 1.29164e-46 1.34063e-46 1.38049e-46 1.41163e-46 1.43483e-46 1.45116e-46 1.46189e-46 1.46836e-46 1.4719e-46 1.47375e-46 1.47496e-46 1.47638e-46 1.47863e-46 1.48211e-46 1.48699e-46 1.4933e-46 1.50092e-46 1.50965e-46 1.51924e-46 1.52945e-46 1.54005e-46 1.55081e-46 1.56156e-46 1.57218e-46 1.58252e-46 1.5925e-46 1.60199e-46 1.61087e-46 1.61899e-46 1.62617e-46 1.6322e-46 1.63688e-46 1.63999e-46 1.64131e-46 1.64069e-46 1.63798e-46 1.63314e-46 1.62616e-46 1.61711e-46 1.60615e-46 1.59345e-46 1.57926e-46 1.56382e-46 1.54738e-46 1.53017e-46 1.51239e-46 1.49422e-46 1.47578e-46 1.45718e-46 1.43852e-46 1.41992e-46 1.4015e-46 1.38344e-46 1.36598e-46 1.34939e-46 1.33401e-46 1.32018e-46 1.30827e-46 1.29859e-46 1.2914e-46 1.28688e-46 1.28506e-46 1.28588e-46 1.28913e-46 1.29447e-46 1.3015e-46 1.30973e-46 1.31868e-46 1.32786e-46 1.33686e-46 1.34533e-46 1.35305e-46 1.35988e-46 1.36578e-46 1.37079e-46 1.37499e-46 1.37849e-46 1.38133e-46 1.38353e-46 1.385e-46 1.38555e-46 1.38487e-46 1.38253e-46 1.37802e-46 1.37076e-46 1.36011e-46 1.34544e-46 1.32617e-46 1.30176e-46 1.27182e-46 1.23609e-46 1.19445e-46 1.147e-46 1.09401e-46 1.03593e-46 9.73401e-47 9.07216e-47 8.38298e-47 7.67664e-47 6.9639e-47 6.25563e-47 5.5624e-47 4.89405e-47 4.25933e-47 3.66553e-47 3.11834e-47 2.62167e-47 2.17763e-47 1.78664e-47 1.44757e-47 1.158e-47 9.14464e-48 7.12761e-48 5.48254e-48 4.16132e-48 3.11637e-48 2.3025e-48 1.67825e-48 1.2067e-48 8.55874e-49 5.988e-49 4.13249e-49 2.81319e-49 1.88908e-49 1.25134e-49 8.17691e-50 5.27115e-50 3.35232e-50 2.10345e-50 1.30224e-50 7.95518e-51 4.79553e-51 2.85287e-51 1.67502e-51 9.707e-52 5.55278e-52 3.13569e-52 1.7482e-52 9.62325e-53 5.23074e-53 2.80772e-53 1.48845e-53 7.7937e-54 4.03109e-54 2.05973e-54 1.03979e-54 5.18641e-55 2.5562e-55 1.24476e-55 5.98364e-56 2.82681e-56 1.28337e-56 4.93648e-57 0 
0 1.17545e-75 4.24893e-75 1.40959e-74 4.60788e-74 1.49302e-73 4.79725e-73 1.52854e-72 4.82941e-72 1.51294e-71 4.69927e-71 1.44709e-70 4.41768e-70 1.33689e-69 4.01027e-69 1.19234e-68 3.51359e-68 1.02611e-67 2.96964e-67 8.51628e-67 2.41993e-66 6.81294e-66 1.90026e-65 5.25061e-65 1.43712e-64 3.89613e-64 1.04616e-63 2.78197e-63 7.32601e-63 1.91034e-62 4.93227e-62 1.26079e-61 3.19055e-61 7.99245e-61 1.98176e-60 4.86342e-60 1.18119e-59 2.83886e-59 6.75122e-59 1.58853e-58 3.69781e-58 8.51516e-58 1.93955e-57 4.3695e-57 9.73519e-57 2.14486e-56 4.67255e-56 1.0064e-55 2.14292e-55 4.51045e-55 9.3836e-55 1.92936e-54 3.92019e-54 7.87061e-54 1.56126e-53 3.05958e-53 5.92279e-53 1.13246e-52 2.1385e-52 3.98786e-52 7.34293e-52 1.33492e-51 2.39581e-51 4.24439e-51 7.42168e-51 1.28076e-50 2.18107e-50 3.66492e-50 6.07589e-50 9.93722e-50 1.6032e-49 2.55118e-49 4.00391e-49 6.19701e-49 9.45798e-49 1.42331e-48 2.11181e-48 3.08912e-48 4.45463e-48 6.33234e-48 8.873e-48 1.2255e-47 1.66834e-47 2.23857e-47 2.96055e-47 3.85917e-47 4.9584e-47 6.27963e-47 7.83965e-47 9.64856e-47 1.17078e-46 1.40086e-46 1.65304e-46 1.92411e-46 2.20968e-46 2.5044e-46 2.80213e-46 3.09634e-46 3.38042e-46 3.64814e-46 3.894e-46 4.11363e-46 4.304e-46 4.4636e-46 4.59245e-46 4.69203e-46 4.76506e-46 4.81522e-46 4.8468e-46 4.86438e-46 4.87245e-46 4.87516e-46 4.87606e-46 4.87799e-46 4.88299e-46 4.89237e-46 4.9067e-46 4.926e-46 4.94987e-46 4.97762e-46 5.00841e-46 5.04137e-46 5.07569e-46 5.11066e-46 5.1457e-46 5.18032e-46 5.21412e-46 5.24674e-46 5.27779e-46 5.30687e-46 5.33346e-46 5.35699e-46 5.3768e-46 5.39217e-46 5.40238e-46 5.40677e-46 5.40476e-46 5.39594e-46 5.3801e-46 5.35725e-46 5.32763e-46 5.29172e-46 5.25013e-46 5.20365e-46 5.15307e-46 5.09924e-46 5.04289e-46 4.9847e-46 4.9252e-46 4.86484e-46 4.80396e-46 4.74288e-46 4.68196e-46 4.62164e-46 4.56249e-46 4.50527e-46 4.4509e-46 4.40047e-46 4.35514e-46 4.31607e-46 4.28433e-46 4.26077e-46 4.24595e-46 4.24004e-46 4.24278e-46 4.25348e-46 4.27108e-46 4.2942e-46 4.32129e-46 4.35069e-46 4.38086e-46 4.4104e-46 4.43822e-46 4.46353e-46 4.48592e-46 4.50527e-46 4.52171e-46 4.53554e-46 4.54707e-46 4.55654e-46 4.56396e-46 4.56907e-46 4.57125e-46 4.56948e-46 4.56241e-46 4.54832e-46 4.52528e-46 4.49122e-46 4.44405e-46 4.3818e-46 4.30273e-46 4.20548e-46 4.08913e-46 3.9533e-46 3.79822e-46 3.62472e-46 3.43427e-46 3.22892e-46 3.01123e-46 2.78422e-46 2.55125e-46 2.31584e-46 2.08161e-46 1.85207e-46 1.63051e-46 1.41986e-46 1.22258e-46 1.04061e-46 8.75292e-47 7.27364e-47 5.97009e-47 4.83885e-47 3.87214e-47 3.05865e-47 2.38456e-47 1.83456e-47 1.39266e-47 1.04306e-47 7.70708e-48 5.61769e-48 4.03919e-48 2.86473e-48 2.0041e-48 1.38292e-48 9.41278e-49 6.3196e-49 4.18525e-49 2.73419e-49 1.76209e-49 1.12032e-49 7.02735e-50 4.34914e-50 2.65587e-50 1.6004e-50 9.51708e-51 5.58553e-51 3.23552e-51 1.85004e-51 1.04426e-51 5.81925e-52 3.2018e-52 1.73952e-52 9.33275e-53 4.94513e-53 2.58805e-53 1.33793e-53 6.83288e-54 3.44763e-54 1.71879e-54 8.46701e-55 4.12097e-55 1.97999e-55 9.34936e-56 4.24274e-56 1.63143e-56 0 
0 3.76552e-75 1.36144e-74 4.51784e-74 1.47728e-73 4.78799e-73 1.5389e-72 4.90486e-72 1.55017e-71 4.85787e-71 1.50938e-70 4.64953e-70 1.41989e-69 4.29842e-69 1.28986e-68 3.83645e-68 1.13095e-67 3.30409e-67 9.566e-67 2.74441e-66 7.80152e-66 2.1973e-65 6.13131e-65 1.69487e-64 4.64101e-64 1.25877e-63 3.38149e-63 8.99634e-63 2.37021e-62 6.18358e-62 1.59731e-61 4.0851e-61 1.0343e-60 2.59229e-60 6.43106e-60 1.57909e-59 3.83723e-59 9.22746e-59 2.19564e-58 5.16915e-58 1.20398e-57 2.77407e-57 6.3224e-57 1.42518e-56 3.17719e-56 7.00423e-56 1.5268e-55 3.29053e-55 7.01088e-55 1.47658e-54 3.07385e-54 6.32414e-54 1.2858e-53 2.58317e-53 5.1274e-53 1.00546e-52 1.94763e-52 3.72634e-52 7.0412e-52 1.31387e-51 2.4208e-51 4.4037e-51 7.90833e-51 1.4019e-50 2.45282e-50 4.23537e-50 7.21685e-50 1.21337e-49 2.0127e-49 3.2936e-49 5.31647e-49 8.4644e-49 1.32908e-48 2.05802e-48 3.14237e-48 4.73083e-48 7.02197e-48 1.02753e-47 1.48221e-47 2.10759e-47 2.95394e-47 4.08074e-47 5.55628e-47 7.45638e-47 9.86208e-47 1.2856e-46 1.65178e-46 2.09181e-46 2.6112e-46 3.2132e-46 3.89818e-46 4.66299e-46 5.50069e-46 6.4003e-46 7.34708e-46 8.32297e-46 9.30743e-46 1.02786e-45 1.12143e-45 1.2094e-45 1.28995e-45 1.36163e-45 1.42346e-45 1.47498e-45 1.51622e-45 1.5477e-45 1.57038e-45 1.58549e-45 1.5945e-45 1.59894e-45 1.60032e-45 1.60003e-45 1.59926e-45 1.59893e-45 1.59973e-45 1.60207e-45 1.60615e-45 1.61195e-45 1.61933e-45 1.62805e-45 1.63783e-45 1.64837e-45 1.65939e-45 1.67066e-45 1.68198e-45 1.69318e-45 1.70412e-45 1.7147e-45 1.72478e-45 1.73422e-45 1.74286e-45 1.75051e-45 1.75696e-45 1.76197e-45 1.7653e-45 1.76674e-45 1.7661e-45 1.76325e-45 1.75811e-45 1.75069e-45 1.74107e-45 1.72941e-45 1.7159e-45 1.70079e-45 1.68437e-45 1.66688e-45 1.64858e-45 1.62969e-45 1.61037e-45 1.59077e-45 1.571e-45 1.55117e-45 1.53139e-45 1.51179e-45 1.49257e-45 1.47398e-45 1.4563e-45 1.43991e-45 1.42516e-45 1.41245e-45 1.40213e-45 1.39447e-45 1.38966e-45 1.38775e-45 1.38866e-45 1.39216e-45 1.39791e-45 1.40546e-45 1.41429e-45 1.42388e-45 1.43371e-45 1.44334e-45 1.45239e-45 1.46063e-45 1.46791e-45 1.4742e-45 1.47955e-45 1.48406e-45 1.48784e-45 1.49097e-45 1.49345e-45 1.49521e-45 1.49605e-45 1.49565e-45 1.49355e-45 1.4892e-45 1.48198e-45 1.4712e-45 1.45618e-45 1.43627e-45 1.41089e-45 1.37959e-45 1.34204e-45 1.29812e-45 1.24787e-45 1.19156e-45 1.12963e-45 1.06275e-45 9.91738e-46 9.17577e-46 8.41352e-46 7.64224e-46 6.87377e-46 6.11971e-46 5.39096e-46 4.69728e-46 4.04694e-46 3.44644e-46 2.90035e-46 2.41128e-46 1.97997e-46 1.6054e-46 1.2851e-46 1.0154e-46 7.91814e-47 6.09299e-47 4.62606e-47 3.46516e-47 2.56054e-47 1.86643e-47 1.34196e-47 9.51716e-48 6.65737e-48 4.5933e-48 3.12591e-48 2.09829e-48 1.38931e-48 9.07398e-49 5.84623e-49 3.71584e-49 2.33004e-49 1.44153e-49 8.79963e-50 5.30051e-50 3.15076e-50 1.84838e-50 1.07024e-50 6.11676e-51 3.45103e-51 1.92221e-51 1.0571e-51 5.74035e-52 3.07824e-52 1.63024e-52 8.52755e-53 4.40618e-53 2.24909e-53 1.13422e-53 5.65162e-54 2.78262e-54 1.35362e-54 6.50033e-55 3.06787e-55 1.39157e-55 5.34907e-56 0 
0 1.19613e-74 4.32567e-74 1.43584e-73 4.69637e-73 1.52259e-72 4.89523e-72 1.56072e-71 4.93422e-71 1.54677e-70 4.80755e-70 1.48144e-69 4.52568e-69 1.37055e-68 4.11421e-68 1.22416e-67 3.61007e-67 1.0551e-66 3.05596e-66 8.77089e-66 2.49433e-65 7.02831e-65 1.96201e-64 5.42599e-64 1.48645e-63 4.03351e-63 1.08405e-62 2.88546e-62 7.60584e-62 1.98525e-61 5.13078e-61 1.31286e-60 3.32575e-60 8.33986e-60 2.0701e-59 5.08572e-59 1.23653e-58 2.97519e-58 7.08343e-58 1.66861e-57 3.88873e-57 8.96536e-57 2.04453e-56 4.61155e-56 1.0287e-55 2.26922e-55 4.94963e-55 1.06742e-54 2.27572e-54 4.79608e-54 9.99063e-54 2.05682e-53 4.18459e-53 8.41241e-53 1.67091e-52 3.27875e-52 6.35535e-52 1.21676e-51 2.30067e-51 4.29584e-51 7.92025e-51 1.44172e-50 2.59076e-50 4.59554e-50 8.04563e-50 1.39013e-49 2.37015e-49 3.98729e-49 6.61788e-49 1.08357e-48 1.75003e-48 2.78771e-48 4.37947e-48 6.7847e-48 1.03642e-47 1.561e-47 2.31793e-47 3.39308e-47 4.89618e-47 6.96411e-47 9.76328e-47 1.34906e-46 1.83719e-46 2.46581e-46 3.26167e-46 4.25206e-46 5.46317e-46 6.91816e-46 8.635e-46 1.06241e-45 1.28861e-45 1.54102e-45 1.81726e-45 2.11364e-45 2.42523e-45 2.74598e-45 3.06906e-45 3.38718e-45 3.69306e-45 3.97985e-45 4.24159e-45 4.47359e-45 4.67269e-45 4.83743e-45 4.96806e-45 5.06645e-45 5.13579e-45 5.18034e-45 5.20498e-45 5.21487e-45 5.21503e-45 5.21004e-45 5.20383e-45 5.19947e-45 5.19919e-45 5.20432e-45 5.21544e-45 5.23251e-45 5.255e-45 5.2821e-45 5.31284e-45 5.34621e-45 5.3813e-45 5.4173e-45 5.45352e-45 5.48944e-45 5.52461e-45 5.55861e-45 5.59104e-45 5.62145e-45 5.6493e-45 5.67399e-45 5.6948e-45 5.71098e-45 5.72177e-45 5.72647e-45 5.72445e-45 5.7153e-45 5.69877e-45 5.67489e-45 5.64391e-45 5.60632e-45 5.56279e-45 5.51413e-45 5.4612e-45 5.40486e-45 5.34592e-45 5.28507e-45 5.22286e-45 5.15975e-45 5.0961e-45 5.03224e-45 4.96852e-45 4.90539e-45 4.84346e-45 4.78351e-45 4.72652e-45 4.67363e-45 4.62606e-45 4.58506e-45 4.55176e-45 4.52706e-45 4.51156e-45 4.50544e-45 4.50843e-45 4.51981e-45 4.53845e-45 4.56289e-45 4.59148e-45 4.62249e-45 4.65427e-45 4.68536e-45 4.71459e-45 4.74117e-45 4.76466e-45 4.78496e-45 4.80224e-45 4.81684e-45 4.82913e-45 4.83936e-45 4.84762e-45 4.85364e-45 4.8568e-45 4.85606e-45 4.84998e-45 4.83678e-45 4.81441e-45 4.78068e-45 4.73335e-45 4.67028e-45 4.58959e-45 4.48975e-45 4.36969e-45 4.22891e-45 4.06752e-45 3.88629e-45 3.68664e-45 3.47064e-45 3.24092e-45 3.00062e-45 2.75325e-45 2.50258e-45 2.25246e-45 2.00669e-45 1.76887e-45 1.54222e-45 1.32948e-45 1.13283e-45 9.53827e-46 7.93367e-46 6.51737e-46 5.28646e-46 4.23317e-46 3.34577e-46 2.60968e-46 2.00855e-46 1.52521e-46 1.14259e-46 8.44361e-47 6.15485e-47 4.42526e-47 3.1382e-47 2.195e-47 1.51425e-47 1.03033e-47 6.91476e-48 4.57732e-48 2.98879e-48 1.92507e-48 1.22318e-48 7.66742e-49 4.74188e-49 2.89351e-49 1.74222e-49 1.03518e-49 6.07019e-50 3.51314e-50 2.00693e-50 1.13175e-50 6.30073e-51 3.4633e-51 1.87971e-51 1.00747e-51 5.33278e-52 2.78803e-52 1.43981e-52 7.34545e-53 3.70234e-53 1.84382e-53 9.07329e-54 4.41139e-54 2.1173e-54 9.98757e-55 4.52818e-55 1.73998e-55 0 
0 3.76737e-74 1.36275e-73 4.52474e-73 1.4804e-72 4.80102e-72 1.54404e-71 4.92437e-71 1.55735e-70 4.88361e-70 1.5184e-69 4.6806e-69 1.4304e-68 4.33337e-68 1.30131e-67 3.87346e-67 1.14274e-66 3.3412e-66 9.68129e-66 2.77978e-65 7.90875e-65 2.22943e-64 6.22641e-64 1.72271e-63 4.72154e-63 1.28181e-62 3.44665e-62 9.17859e-62 2.42061e-61 6.32141e-61 1.63459e-60 4.18478e-60 1.06066e-59 2.66122e-59 6.60929e-59 1.62465e-58 3.95241e-58 9.51533e-58 2.26677e-57 5.34291e-57 1.24593e-56 2.87423e-56 6.5587e-56 1.48028e-55 3.30417e-55 7.29341e-55 1.59187e-54 3.43522e-54 7.32871e-54 1.54555e-53 3.22169e-53 6.63713e-53 1.35124e-52 2.71829e-52 5.40289e-52 1.06091e-51 2.05783e-51 3.9425e-51 7.45968e-51 1.39383e-50 2.57155e-50 4.68414e-50 8.42302e-50 1.49508e-49 2.61922e-49 4.5284e-49 7.72574e-49 1.3005e-48 2.15981e-48 3.53839e-48 5.71799e-48 9.11348e-48 1.43248e-47 2.22032e-47 3.39335e-47 5.11318e-47 7.59573e-47 1.11232e-46 1.60564e-46 2.28451e-46 3.20364e-46 4.42773e-46 6.031e-46 8.09578e-46 1.07099e-45 1.39626e-45 1.79395e-45 2.27161e-45 2.83504e-45 3.48753e-45 4.22914e-45 5.0561e-45 5.96043e-45 6.92977e-45 7.94765e-45 8.99406e-45 1.00464e-44 1.10806e-44 1.20727e-44 1.30003e-44 1.38439e-44 1.45885e-44 1.52239e-44 1.57457e-44 1.61552e-44 1.64588e-44 1.66674e-44 1.67953e-44 1.68588e-44 1.68751e-44 1.68607e-44 1.68308e-44 1.67982e-44 1.67729e-44 1.67622e-44 1.67703e-44 1.67989e-44 1.68479e-44 1.69154e-44 1.69986e-44 1.70942e-44 1.71988e-44 1.73095e-44 1.74234e-44 1.75384e-44 1.76526e-44 1.77646e-44 1.7873e-44 1.79765e-44 1.80737e-44 1.81627e-44 1.82417e-44 1.83083e-44 1.83602e-44 1.83948e-44 1.841e-44 1.84037e-44 1.83746e-44 1.83219e-44 1.82456e-44 1.81466e-44 1.80265e-44 1.78874e-44 1.77319e-44 1.75628e-44 1.73828e-44 1.71945e-44 1.70002e-44 1.68015e-44 1.66e-44 1.63967e-44 1.61927e-44 1.59892e-44 1.57875e-44 1.55896e-44 1.53979e-44 1.52157e-44 1.50465e-44 1.48943e-44 1.47631e-44 1.46565e-44 1.45776e-44 1.4528e-44 1.45086e-44 1.45184e-44 1.4555e-44 1.46149e-44 1.46934e-44 1.47852e-44 1.48847e-44 1.49866e-44 1.50862e-44 1.51798e-44 1.52649e-44 1.534e-44 1.5405e-44 1.54603e-44 1.55072e-44 1.55468e-44 1.55801e-44 1.56073e-44 1.56278e-44 1.56394e-44 1.56389e-44 1.56218e-44 1.55824e-44 1.5514e-44 1.54096e-44 1.5262e-44 1.50643e-44 1.48102e-44 1.44947e-44 1.41143e-44 1.36672e-44 1.31534e-44 1.25752e-44 1.19371e-44 1.12454e-44 1.05084e-44 9.73623e-45 8.94001e-45 8.13189e-45 7.32434e-45 6.52971e-45 5.7597e-45 5.02491e-45 4.33441e-45 3.69541e-45 3.11313e-45 2.59069e-45 2.12915e-45 1.72772e-45 1.38397e-45 1.09418e-45 8.53669e-46 6.57164e-46 4.99103e-46 3.73937e-46 2.76353e-46 2.01448e-46 1.44835e-46 1.02704e-46 7.18286e-47 4.95451e-47 3.37057e-47 2.26158e-47 1.49672e-47 9.77024e-48 6.2911e-48 3.99602e-48 2.50399e-48 1.548e-48 9.44215e-49 5.68286e-49 3.37514e-49 1.97824e-49 1.14438e-49 6.53426e-50 3.68299e-50 2.04937e-50 1.12589e-50 6.10757e-51 3.27173e-51 1.73088e-51 9.0443e-52 4.66815e-52 2.38023e-52 1.19905e-52 5.96811e-53 2.93524e-53 1.42631e-53 6.84199e-54 3.22574e-54 1.46179e-54 5.61499e-55 0 
0 1.17647e-73 4.25665e-73 1.41374e-72 4.62688e-72 1.50099e-71 4.82884e-71 1.54056e-70 4.8737e-70 1.52884e-69 4.75513e-69 1.46633e-68 4.48278e-68 1.35857e-67 4.08136e-67 1.21533e-66 3.58688e-66 1.04918e-65 3.04132e-65 8.73628e-65 2.48664e-64 7.01283e-64 1.95946e-63 5.42391e-63 1.48727e-62 4.03961e-62 1.08675e-61 2.89552e-61 7.64009e-61 1.99624e-60 5.16462e-60 1.32294e-59 3.35491e-59 8.42227e-59 2.09291e-58 5.14763e-58 1.25304e-57 3.01846e-57 7.19504e-57 1.69695e-56 3.95966e-56 9.14026e-56 2.08705e-55 4.71348e-55 1.0528e-54 2.32541e-54 5.07889e-54 1.09675e-53 2.34141e-53 4.94122e-53 1.0307e-52 2.12488e-52 4.32904e-52 8.71488e-52 1.7334e-51 3.40612e-51 6.61147e-51 1.26756e-50 2.40008e-50 4.48768e-50 8.28539e-50 1.51026e-49 2.71763e-49 4.82707e-49 8.46224e-49 1.46403e-48 2.49936e-48 4.20997e-48 6.99609e-48 1.14686e-47 1.85441e-47 2.9573e-47 4.65091e-47 7.21262e-47 1.10287e-46 1.66261e-46 2.47091e-46 3.61989e-46 5.22724e-46 7.43981e-46 1.04361e-45 1.44273e-45 1.96554e-45 2.63888e-45 3.49133e-45 4.55196e-45 5.84851e-45 7.40538e-45 9.24113e-45 1.13661e-44 1.37799e-44 1.64697e-44 1.94086e-44 2.25556e-44 2.58563e-44 2.92447e-44 3.26464e-44 3.59828e-44 3.91757e-44 4.21522e-44 4.48494e-44 4.72187e-44 4.92284e-44 5.08651e-44 5.21344e-44 5.30586e-44 5.36746e-44 5.403e-44 5.4179e-44 5.41779e-44 5.40813e-44 5.39386e-44 5.37915e-44 5.36728e-44 5.36052e-44 5.36025e-44 5.36701e-44 5.38064e-44 5.40053e-44 5.42572e-44 5.45513e-44 5.48763e-44 5.5222e-44 5.55794e-44 5.59412e-44 5.63013e-44 5.66549e-44 5.69976e-44 5.73252e-44 5.76328e-44 5.79151e-44 5.81656e-44 5.83772e-44 5.85421e-44 5.86526e-44 5.87012e-44 5.86818e-44 5.85899e-44 5.84231e-44 5.81816e-44 5.78681e-44 5.74875e-44 5.70467e-44 5.65539e-44 5.60179e-44 5.54477e-44 5.48512e-44 5.42356e-44 5.36064e-44 5.29682e-44 5.23245e-44 5.16784e-44 5.10336e-44 5.03945e-44 4.97672e-44 4.91596e-44 4.85816e-44 4.80449e-44 4.7562e-44 4.71457e-44 4.68076e-44 4.65571e-44 4.64002e-44 4.6339e-44 4.63706e-44 4.64877e-44 4.66788e-44 4.69288e-44 4.7221e-44 4.75375e-44 4.78614e-44 4.8178e-44 4.84753e-44 4.87453e-44 4.89838e-44 4.91899e-44 4.93657e-44 4.9515e-44 4.96418e-44 4.97493e-44 4.98384e-44 4.99071e-44 4.99491e-44 4.99541e-44 4.99078e-44 4.9792e-44 4.95859e-44 4.92667e-44 4.88114e-44 4.81977e-44 4.74056e-44 4.64185e-44 4.52244e-44 4.3817e-44 4.2196e-44 4.03678e-44 3.83457e-44 3.61496e-44 3.38055e-44 3.13447e-44 2.8803e-44 2.62189e-44 2.36326e-44 2.10839e-44 1.86105e-44 1.62472e-44 1.40234e-44 1.19631e-44 1.00837e-44 8.3957e-45 6.90315e-45 5.60392e-45 4.49056e-45 3.55138e-45 2.77148e-45 2.13396e-45 1.62096e-45 1.21459e-45 8.97684e-46 6.5438e-46 4.7047e-46 3.33592e-46 2.3328e-46 1.60886e-46 1.09431e-46 7.34095e-47 4.85703e-47 3.16966e-47 2.04032e-47 1.29554e-47 8.11514e-48 5.01492e-48 3.05763e-48 1.83947e-48 1.092e-48 6.39744e-49 3.699e-49 2.11104e-49 1.18926e-49 6.61409e-50 3.63174e-50 1.96903e-50 1.0542e-50 5.57405e-51 2.91096e-51 1.50162e-51 7.65224e-52 3.85265e-52 1.91651e-52 9.42041e-53 4.57501e-53 2.19339e-53 1.03354e-53 4.68128e-54 1.7975e-54 0 