# vtk DataFile Version 3.0
Gray-Scott Simulation Output
ASCII
DATASET STRUCTURED_POINTS
DIMENSIONS 256 256 1
SPACING 1.0 1.0 1.0
ORIGIN 0 0 0
POINT_DATA 65536
SCALARS u double
LOOKUP_TABLE default
0 0 0 0 0 0 0 0 0 0 0 0 0 0 0 0 0 0 0 0 0 0 0 0 0 0 0 0 0 0 0 0 0 0 0 0 0 0 0 0 0 0 0 0 0 0 0 0 0 0 0 0 0 0 0 0 0 0 0 0 0 0 0 0 0 0 0 0 0 0 0 0 0 0 0 0 0 0 0 0 0 0 0 0 0 0 0 0 0 0 0 0 0 0 0 0 0 0 0 0 0 0 0 0 0 0 0 0 0 0 0 0 0 0 0 0 0 0 0 0 0 0 0 0 0 0 0 0 0 0 0 0 0 0 0 0 0 0 0 0 0 0 0 0 0 0 0 0 0 0 0 0 0 0 0 0 0 0 0 0 0 0 0 0 0 0 0 0 0 0 0 0 0 0 0 0 0 0 0 0 0 0 0 0 0 0 0 0 0 0 0 0 0 0 0 0 0 0 0 0 0 0 0 0 0 0 0 0 0 0 0 0 0 0 0 0 0 0 0 0 0 0 0 0 0 0 0 0 0 0 0 0 0 0 0 0 0 0 0 0 0 0 0 0 0 0 0 0 0 0 0 0 0 0 0 0 
0 1.05872e-167 1.7562e-166 2.87187e-165 4.64557e-164 7.43286e-163 1.17617e-161 1.84049e-160 2.84774e-159 4.35635e-158 6.58797e-157 9.8477e-156 1.45486e-154 2.12403e-153 3.06404e-152 4.36689e-151 6.14803e-150 8.54924e-149 1.17406e-147 1.59206e-146 2.13146e-145 2.81695e-144 3.67452e-143 4.73015e-142 6.00807e-141 7.52854e-140 9.30531e-139 1.13428e-137 1.36335e-136 1.61553e-135 1.88694e-134 2.17201e-133 2.46343e-132 2.75237e-131 3.02882e-130 3.28209e-129 3.50141e-128 3.67668e-127 3.79918e-126 3.86227e-125 3.86198e-124 3.79738e-123 3.67072e-122 3.48736e-121 3.25539e-120 2.98502e-119 2.68782e-118 2.37593e-117 2.06115e-116 1.75424e-115 1.46428e-114 1.19831e-113 9.61087e-113 7.55173e-112 5.81101e-111 4.37728e-110 3.22643e-109 2.32605e-108 1.63945e-107 1.12916e-106 7.59585e-106 4.9882e-105 3.19614e-104 1.99701e-103 1.21607e-102 7.21268e-102 4.16408e-101 2.3385e-100 1.2766e-99 6.76939e-99 3.48413e-98 1.73917e-97 8.41253e-97 3.93972e-96 1.78466e-95 7.81216e-95 3.30118e-94 1.34517e-93 5.27966e-93 1.99357e-92 7.23288e-92 2.51807e-91 8.40043e-91 2.68152e-90 8.17799e-90 2.37911e-89 6.59139e-89 1.73622e-88 4.34065e-88 1.02821e-87 2.30385e-87 4.87483e-87 9.72605e-87 1.82727e-86 3.22914e-86 5.36366e-86 8.37109e-86 1.22779e-85 1.69355e-85 2.19974e-85 2.6956e-85 3.12406e-85 3.43501e-85 3.59788e-85 3.60949e-85 3.49437e-85 3.29762e-85 3.07243e-85 2.86698e-85 2.71488e-85 2.63203e-85 2.61918e-85 2.66792e-85 2.76653e-85 2.90308e-85 3.06526e-85 3.23824e-85 3.40365e-85 3.54199e-85 3.63827e-85 3.68787e-85 3.69867e-85 3.68736e-85 3.67176e-85 3.66356e-85 3.66557e-85 3.67418e-85 3.68458e-85 3.69506e-85 3.70889e-85 3.73373e-85 3.77967e-85 3.856e-85 3.96684e-85 4.10666e-85 4.25812e-85 4.39416e-85 4.48497e-85 4.5074e-85 4.45273e-85 4.32904e-85 4.15704e-85 3.96193e-85 3.76563e-85 3.58318e-85 3.42359e-85 3.29259e-85 3.19439e-85 3.13123e-85 3.10204e-85 3.10177e-85 3.12197e-85 3.1515e-85 3.17651e-85 3.17996e-85 3.14289e-85 3.04918e-85 2.89255e-85 2.68239e-85 2.44432e-85 2.21445e-85 2.03003e-85 1.92051e-85 1.90232e-85 1.97751e-85 2.13512e-85 2.35354e-85 2.60337e-85 2.85119e-85 3.06473e-85 3.21877e-85 3.29975e-85 3.3072e-85 3.25164e-85 3.1504e-85 3.02381e-85 2.89241e-85 2.7752e-85 2.68781e-85 2.64057e-85 2.63724e-85 2.67497e-85 2.74626e-85 2.84207e-85 2.95484e-85 3.07929e-85 3.20982e-85 3.33561e-85 3.43717e-85 3.48821e-85 3.46364e-85 3.34989e-85 3.15117e-85 2.88776e-85 2.5876e-85 2.2763e-85 1.97082e-85 1.67892e-85 1.40267e-85 1.14302e-85 9.02658e-86 6.86418e-86 4.9977e-86 3.4675e-86 2.28417e-86 1.42478e-86 8.40079e-87 4.67773e-87 2.45912e-87 1.22089e-87 5.72844e-88 2.54274e-88 1.06908e-88 4.26356e-89 1.6152e-89 5.82152e-90 1.99926e-90 6.55218e-91 2.05226e-91 6.15233e-92 1.76772e-92 4.87461e-93 1.29174e-93 3.2935e-94 8.08901e-95 1.91591e-95 4.38087e-96 9.68039e-97 2.06915e-97 4.2821e-98 8.58756e-99 1.67029e-99 3.15333e-100 5.78273e-101 1.03085e-101 1.78755e-102 3.01722e-103 4.96041e-104 7.94785e-105 1.24181e-105 1.89311e-106 2.81734e-107 4.09513e-108 5.81666e-109 8.07718e-110 1.09704e-110 1.45797e-111 1.8968e-112 2.41664e-113 3.01641e-114 3.68992e-115 4.42536e-116 5.20516e-117 6.00563e-118 6.71967e-119 0 
0 1.75596e-166 2.91084e-165 4.75683e-164 7.68953e-163 1.22949e-161 1.94423e-160 3.04033e-159 4.70108e-158 7.18671e-157 1.0861e-155 1.62242e-154 2.39531e-153 3.49471e-152 5.03801e-151 7.17545e-150 1.00955e-148 1.40292e-147 1.92534e-146 2.60911e-145 3.49081e-144 4.61045e-143 6.0101e-142 7.73168e-141 9.81412e-140 1.22898e-138 1.51804e-137 1.84924e-136 2.22127e-135 2.63043e-134 3.07039e-133 3.53198e-132 4.0033e-131 4.47001e-130 4.91585e-129 5.32353e-128 5.67568e-127 5.95603e-126 6.1506e-125 6.24882e-124 6.24444e-123 6.13615e-122 5.92779e-121 5.6282e-120 5.25058e-119 4.81153e-118 4.32982e-117 3.82505e-116 3.31625e-115 2.82074e-114 2.35308e-113 1.9245e-112 1.54259e-111 1.21137e-110 9.31585e-110 7.01322e-109 5.1663e-108 3.72238e-107 2.62208e-106 1.80488e-105 1.21345e-104 7.96415e-104 5.10004e-103 3.1848e-102 1.93828e-101 1.14897e-100 6.62966e-100 3.7211e-99 2.03025e-98 1.076e-97 5.53507e-97 2.76147e-96 1.33505e-95 6.24898e-95 2.82928e-94 1.23786e-93 5.22821e-93 2.12936e-92 8.35347e-92 3.15273e-91 1.14331e-90 3.97853e-90 1.32667e-89 4.23306e-89 1.29044e-88 3.75258e-88 1.03926e-87 2.73644e-87 6.83884e-87 1.61944e-86 3.62743e-86 7.67321e-86 1.53052e-85 2.87476e-85 5.07918e-85 8.43507e-85 1.31627e-84 1.93034e-84 2.66237e-84 3.45791e-84 4.23722e-84 4.91065e-84 5.39948e-84 5.65569e-84 5.67425e-84 5.49372e-84 5.1849e-84 4.83138e-84 4.5088e-84 4.27e-84 4.13992e-84 4.11975e-84 4.19631e-84 4.35115e-84 4.56557e-84 4.82023e-84 5.09185e-84 5.35163e-84 5.56898e-84 5.72035e-84 5.79849e-84 5.81576e-84 5.79831e-84 5.77409e-84 5.76142e-84 5.76472e-84 5.77837e-84 5.79482e-84 5.8114e-84 5.83322e-84 5.8723e-84 5.94449e-84 6.06436e-84 6.23836e-84 6.45783e-84 6.69552e-84 6.90899e-84 7.05148e-84 7.08664e-84 7.0008e-84 6.80659e-84 6.53652e-84 6.23009e-84 5.92174e-84 5.6351e-84 5.38434e-84 5.17853e-84 5.02426e-84 4.92505e-84 4.8792e-84 4.87877e-84 4.91045e-84 4.95673e-84 4.99581e-84 5.00089e-84 4.94223e-84 4.79454e-84 4.54802e-84 4.21749e-84 3.8432e-84 3.48188e-84 3.19201e-84 3.01989e-84 2.99128e-84 3.10941e-84 3.35707e-84 3.7003e-84 4.09293e-84 4.48245e-84 4.81817e-84 5.06044e-84 5.18796e-84 5.19996e-84 5.11291e-84 4.95406e-84 4.75529e-84 4.54892e-84 4.36478e-84 4.22743e-84 4.15314e-84 4.14778e-84 4.20693e-84 4.31882e-84 4.46927e-84 4.6464e-84 4.84192e-84 5.04696e-84 5.24451e-84 5.40395e-84 5.484e-84 5.44533e-84 5.26664e-84 4.95452e-84 4.5408e-84 4.0693e-84 3.58019e-84 3.10012e-84 2.64125e-84 2.20688e-84 1.79852e-84 1.42044e-84 1.08026e-84 7.86599e-85 5.45819e-85 3.59598e-85 2.24338e-85 1.32297e-85 7.36801e-86 3.87429e-86 1.92397e-86 9.02973e-87 4.00929e-87 1.68622e-87 6.727e-88 2.54936e-88 9.19184e-89 3.15794e-89 1.03537e-89 3.24432e-90 9.73012e-91 2.79695e-91 7.71626e-92 2.04571e-92 5.21833e-93 1.28227e-93 3.03858e-94 6.95141e-95 1.53683e-95 3.28659e-96 6.80513e-97 1.36545e-97 2.65723e-98 5.01927e-99 9.20956e-100 1.64263e-100 2.84997e-101 4.81317e-102 7.91741e-103 1.26929e-103 1.98433e-104 3.02678e-105 4.50707e-106 6.55503e-107 9.31608e-108 1.29441e-108 1.7591e-109 2.33924e-110 3.04512e-111 3.88199e-112 4.84834e-113 5.93447e-114 7.12157e-115 8.38158e-116 9.67641e-117 1.08333e-117 0 
0 2.8711e-165 4.75618e-164 7.7672e-163 1.25474e-161 2.00486e-160 3.1682e-159 4.95101e-158 7.65031e-157 1.16875e-155 1.76509e-154 2.63495e-153 3.88759e-152 5.66814e-151 8.1658e-150 1.16225e-148 1.63414e-147 2.26938e-146 3.1124e-145 4.21497e-144 5.63561e-143 7.4383e-142 9.69006e-141 1.24576e-139 1.58026e-138 1.9776e-137 2.44115e-136 2.97182e-135 3.56737e-134 4.22175e-133 4.92469e-132 5.6614e-131 6.41276e-130 7.15577e-129 7.86447e-128 8.51126e-127 9.0685e-126 9.5104e-125 9.81487e-124 9.96532e-123 9.95207e-122 9.77335e-121 9.43558e-120 8.95313e-119 8.34723e-118 7.6445e-117 6.87492e-116 6.0697e-115 5.25911e-114 4.47056e-113 3.7271e-112 3.04642e-111 2.4404e-110 1.91525e-109 1.47201e-108 1.10751e-107 8.15367e-107 5.87136e-106 4.13341e-105 2.84354e-104 1.91064e-103 1.25328e-102 8.02107e-102 5.00604e-101 3.04496e-100 1.80398e-99 1.04033e-98 5.83596e-98 3.18238e-97 1.68569e-96 8.66676e-96 4.32158e-95 2.08819e-94 9.76915e-94 4.42079e-93 1.9332e-92 8.16094e-92 3.32218e-91 1.30266e-90 4.9141e-90 1.78122e-89 6.19555e-89 2.06503e-88 6.58613e-88 2.00693e-87 5.83375e-87 1.61499e-86 4.25082e-86 1.06197e-85 2.51392e-85 5.62923e-85 1.19042e-84 2.37381e-84 4.45765e-84 7.87421e-84 1.30745e-83 2.03992e-83 2.99124e-83 4.12523e-83 5.35755e-83 6.56473e-83 7.60798e-83 8.3654e-83 8.76265e-83 8.79191e-83 8.51288e-83 8.03517e-83 7.48818e-83 6.98901e-83 6.61947e-83 6.41818e-83 6.38699e-83 6.50549e-83 6.74514e-83 7.07699e-83 7.47109e-83 7.89147e-83 8.29359e-83 8.63013e-83 8.86469e-83 8.98605e-83 9.01325e-83 8.98673e-83 8.94965e-83 8.93036e-83 8.93572e-83 8.95707e-83 8.98271e-83 9.00856e-83 9.04249e-83 9.1031e-83 9.21491e-83 9.40043e-83 9.66965e-83 1.00092e-82 1.03768e-82 1.07069e-82 1.09273e-82 1.09816e-82 1.08488e-82 1.05482e-82 1.01303e-82 9.65595e-83 9.17856e-83 8.73471e-83 8.3464e-83 8.0277e-83 7.78884e-83 7.63524e-83 7.56427e-83 7.5636e-83 7.61257e-83 7.68405e-83 7.74422e-83 7.75157e-83 7.66008e-83 7.43066e-83 7.04825e-83 6.53587e-83 5.95586e-83 5.39608e-83 4.94705e-83 4.68042e-83 4.63607e-83 4.819e-83 5.20255e-83 5.73416e-83 6.34233e-83 6.94576e-83 7.46596e-83 7.84154e-83 8.03946e-83 8.05851e-83 7.92411e-83 7.67843e-83 7.37085e-83 7.05139e-83 6.76628e-83 6.55353e-83 6.43835e-83 6.42986e-83 6.52126e-83 6.69433e-83 6.92716e-83 7.20139e-83 7.50411e-83 7.82156e-83 8.12735e-83 8.37405e-83 8.49781e-83 8.43781e-83 8.16113e-83 7.67798e-83 7.03752e-83 6.30754e-83 5.55014e-83 4.80652e-83 4.09555e-83 3.42237e-83 2.78936e-83 2.2032e-83 1.67571e-83 1.2203e-83 8.46859e-84 5.58003e-84 3.48167e-84 2.05357e-84 1.14392e-84 6.01636e-85 2.98846e-85 1.40295e-85 6.23105e-86 2.62148e-86 1.04616e-86 3.96608e-87 1.43052e-87 4.9166e-88 1.61262e-88 5.05523e-89 1.51678e-89 4.36194e-90 1.20392e-90 3.19328e-91 8.14949e-92 2.00349e-92 4.74999e-93 1.0872e-93 2.40482e-94 5.14548e-95 1.06596e-95 2.13998e-96 4.16672e-97 7.87478e-98 1.44568e-98 2.57994e-99 4.4787e-100 7.56804e-101 1.2456e-101 1.99803e-102 3.12538e-103 4.77001e-104 7.10696e-105 1.03423e-105 1.47071e-106 2.04467e-107 2.78034e-108 3.69947e-109 4.81868e-110 6.14665e-111 7.68136e-112 9.40783e-113 1.12966e-113 1.33034e-114 1.5368e-115 1.72157e-116 0 
0 4.64367e-164 7.6874e-163 1.25456e-161 2.02528e-160 3.23389e-159 5.10695e-158 7.97536e-157 1.23153e-155 1.88016e-154 2.8376e-153 4.23316e-152 6.24142e-151 9.09399e-150 1.30926e-148 1.86225e-147 2.61661e-146 3.63136e-145 4.97704e-144 6.73571e-143 9.00005e-142 1.18711e-140 1.54547e-139 1.98556e-138 2.51707e-137 3.14791e-136 3.88326e-135 4.72436e-134 5.66744e-133 6.70273e-132 7.81371e-131 8.97684e-130 1.01617e-128 1.13318e-127 1.24462e-126 1.34612e-125 1.43334e-124 1.50224e-123 1.54935e-122 1.57211e-121 1.56904e-120 1.53989e-119 1.48575e-118 1.4089e-117 1.31274e-116 1.20148e-115 1.07986e-114 9.52802e-114 8.25053e-113 7.00918e-112 5.84001e-111 4.77056e-110 3.81927e-109 2.9956e-108 2.30097e-107 1.73018e-106 1.27303e-105 9.16155e-105 6.44592e-104 4.43184e-103 2.97614e-102 1.95106e-101 1.24798e-100 7.78439e-100 4.73225e-99 2.80205e-98 1.61501e-97 9.05475e-97 4.93492e-96 2.61259e-95 1.34251e-94 6.69072e-94 3.23127e-93 1.5109e-92 6.83372e-92 2.98686e-91 1.26027e-90 5.12782e-90 2.0097e-89 7.57775e-89 2.74545e-88 9.54507e-88 3.18006e-87 1.0138e-86 3.08797e-86 8.97253e-86 2.48296e-85 6.53298e-85 1.63155e-84 3.86094e-84 8.64283e-84 1.82719e-83 3.64263e-83 6.83869e-83 1.20777e-82 2.00504e-82 3.12788e-82 4.58602e-82 6.32404e-82 8.2127e-82 1.00629e-81 1.16619e-81 1.28231e-81 1.34325e-81 1.34781e-81 1.30514e-81 1.23203e-81 1.1483e-81 1.07188e-81 1.0153e-81 9.84482e-82 9.79712e-82 9.9786e-82 1.03456e-81 1.08537e-81 1.14571e-81 1.21008e-81 1.27166e-81 1.32322e-81 1.35918e-81 1.37782e-81 1.38206e-81 1.37808e-81 1.37246e-81 1.36956e-81 1.37042e-81 1.37372e-81 1.37768e-81 1.38166e-81 1.38688e-81 1.39619e-81 1.41332e-81 1.44173e-81 1.48294e-81 1.5349e-81 1.59116e-81 1.64167e-81 1.67538e-81 1.68368e-81 1.66334e-81 1.61733e-81 1.55333e-81 1.4807e-81 1.40757e-81 1.33957e-81 1.28008e-81 1.23126e-81 1.19467e-81 1.17114e-81 1.16027e-81 1.16017e-81 1.16766e-81 1.17858e-81 1.18775e-81 1.18879e-81 1.17468e-81 1.13941e-81 1.08072e-81 1.00214e-81 9.13214e-82 8.27409e-82 7.58587e-82 7.17721e-82 7.10919e-82 7.38945e-82 7.97715e-82 8.79179e-82 9.72382e-82 1.06487e-81 1.14462e-81 1.20223e-81 1.23262e-81 1.23561e-81 1.21508e-81 1.17749e-81 1.1304e-81 1.08148e-81 1.0378e-81 1.0052e-81 9.87531e-82 9.86201e-82 1.00017e-81 1.02666e-81 1.06231e-81 1.10431e-81 1.15068e-81 1.19931e-81 1.24613e-81 1.2839e-81 1.30283e-81 1.29362e-81 1.25124e-81 1.17724e-81 1.07915e-81 9.67333e-82 8.51292e-82 7.37332e-82 6.28343e-82 5.25119e-82 4.28035e-82 3.38118e-82 2.5719e-82 1.87313e-82 1.30005e-82 8.56725e-83 5.34635e-83 3.15394e-83 1.75721e-83 9.24395e-84 4.59278e-84 2.15669e-84 9.58148e-85 4.03229e-85 1.60971e-85 6.10468e-86 2.2027e-86 7.57344e-87 2.48504e-87 7.79331e-88 2.33931e-88 6.73032e-89 1.85845e-89 4.93161e-90 1.25917e-90 3.09705e-91 7.34626e-92 1.68228e-92 3.72296e-93 7.96992e-94 1.65194e-94 3.3181e-95 6.46402e-96 1.2223e-96 2.24516e-97 4.00886e-98 6.96309e-99 1.17727e-99 1.93871e-100 3.11158e-101 4.86997e-102 7.43689e-103 1.10868e-103 1.61432e-104 2.29696e-105 3.19524e-106 4.34743e-107 5.78803e-108 7.54358e-109 9.62825e-110 1.20395e-110 1.47544e-111 1.77273e-112 2.08891e-113 2.41457e-114 2.7065e-115 0 
0 7.42874e-163 1.22897e-161 2.00429e-160 3.23342e-159 5.1595e-158 8.14241e-157 1.27072e-155 1.96089e-154 2.99166e-153 4.5121e-152 6.72671e-151 9.91134e-150 1.44316e-148 2.07633e-147 2.95136e-146 4.14415e-145 5.74751e-144 7.87218e-143 1.06469e-141 1.42167e-140 1.87396e-139 2.43806e-138 3.13029e-137 3.96563e-136 4.95631e-135 6.11013e-134 7.42875e-133 8.90593e-132 1.0526e-130 1.22628e-129 1.40792e-128 1.59274e-127 1.77501e-126 1.94832e-125 2.10587e-124 2.2409e-123 2.34713e-122 2.41922e-121 2.45321e-120 2.44688e-119 2.39994e-118 2.31411e-117 2.19306e-116 2.04212e-115 1.86789e-114 1.67779e-113 1.47946e-112 1.28032e-111 1.08703e-110 9.05157e-110 7.38956e-109 5.91247e-108 4.63461e-107 3.55781e-106 2.67365e-105 1.96607e-104 1.41408e-103 9.94346e-103 6.83258e-102 4.58568e-101 3.00451e-100 1.92072e-99 1.19739e-98 7.27505e-98 4.3053e-97 2.48006e-96 1.38972e-95 7.56997e-95 4.00545e-94 2.05716e-93 1.02469e-92 4.94617e-92 2.31158e-91 1.04498e-90 4.56509e-90 1.92523e-89 7.82965e-89 3.06714e-88 1.15595e-87 4.18614e-87 1.45474e-86 4.84453e-86 1.54377e-85 4.70031e-85 1.3652e-84 3.77645e-84 9.93268e-84 2.47973e-83 5.86617e-83 1.31276e-82 2.77453e-82 5.5298e-82 1.03792e-81 1.83269e-81 3.04195e-81 4.74478e-81 6.95589e-81 9.59121e-81 1.24549e-80 1.52602e-80 1.76849e-80 1.94461e-80 2.03709e-80 2.04414e-80 1.9796e-80 1.8689e-80 1.74209e-80 1.62635e-80 1.54065e-80 1.49398e-80 1.48676e-80 1.51426e-80 1.56984e-80 1.64681e-80 1.73821e-80 1.83572e-80 1.92903e-80 2.00716e-80 2.0617e-80 2.09004e-80 2.09657e-80 2.09065e-80 2.08224e-80 2.07792e-80 2.07928e-80 2.08433e-80 2.09038e-80 2.09646e-80 2.10441e-80 2.11853e-80 2.14449e-80 2.18753e-80 2.24993e-80 2.32861e-80 2.41377e-80 2.49024e-80 2.54125e-80 2.55381e-80 2.52299e-80 2.4533e-80 2.35637e-80 2.24632e-80 2.13551e-80 2.03246e-80 1.94229e-80 1.86829e-80 1.81284e-80 1.77719e-80 1.76073e-80 1.76057e-80 1.77191e-80 1.78842e-80 1.80223e-80 1.80369e-80 1.78214e-80 1.72852e-80 1.63941e-80 1.52017e-80 1.38529e-80 1.25517e-80 1.15082e-80 1.08885e-80 1.07853e-80 1.12101e-80 1.2101e-80 1.33359e-80 1.4749e-80 1.61515e-80 1.7361e-80 1.82351e-80 1.86969e-80 1.87433e-80 1.84332e-80 1.78642e-80 1.7151e-80 1.64097e-80 1.57478e-80 1.52535e-80 1.49854e-80 1.49648e-80 1.5176e-80 1.5577e-80 1.6117e-80 1.67534e-80 1.74561e-80 1.8193e-80 1.89024e-80 1.94744e-80 1.97608e-80 1.9621e-80 1.89787e-80 1.78575e-80 1.63713e-80 1.46769e-80 1.2918e-80 1.11902e-80 9.53734e-81 7.97144e-81 6.49833e-81 5.13372e-81 3.90535e-81 2.84457e-81 1.97451e-81 1.30136e-81 8.12226e-82 4.79233e-82 2.67055e-82 1.40517e-82 6.98313e-83 3.28001e-83 1.45762e-83 6.13618e-84 2.4504e-84 9.29611e-85 3.35546e-85 1.15413e-85 3.78849e-86 1.18859e-86 3.56928e-87 1.02735e-87 2.83808e-88 7.53461e-89 1.92468e-89 4.7362e-90 1.12398e-90 2.57515e-91 5.70176e-92 1.22122e-92 2.53254e-93 5.08954e-94 9.92018e-95 1.87683e-95 3.44927e-96 6.16221e-97 1.07091e-97 1.81162e-98 2.98502e-99 4.79355e-100 7.50669e-101 1.14699e-101 1.71089e-102 2.49262e-103 3.54872e-104 4.9394e-105 6.72448e-106 8.95803e-107 1.1682e-107 1.49192e-108 1.86666e-109 2.28896e-110 2.75183e-111 3.24461e-112 3.75272e-113 4.20895e-114 0 
0 1.17534e-161 1.94312e-160 3.16683e-159 5.10545e-158 8.14119e-157 1.28393e-155 2.00239e-154 3.08787e-153 4.70792e-152 7.09587e-151 1.05716e-149 1.55661e-148 2.26504e-147 3.25664e-146 4.62602e-145 6.49134e-144 8.99689e-143 1.23146e-141 1.66442e-140 2.22103e-139 2.92573e-138 3.80395e-137 4.88081e-136 6.17927e-135 7.71793e-134 9.50849e-133 1.1553e-131 1.38414e-130 1.63488e-129 1.90342e-128 2.18396e-127 2.46906e-126 2.74987e-125 3.01644e-124 3.25831e-123 3.46504e-122 3.62701e-121 3.73607e-120 3.7862e-119 3.77407e-118 3.69936e-117 3.56485e-116 3.37628e-115 3.14196e-114 2.87214e-113 2.57824e-112 2.2721e-111 1.96507e-110 1.66739e-109 1.38758e-108 1.13212e-107 9.0528e-107 7.092e-106 5.44104e-105 4.08647e-104 3.00322e-103 2.15878e-102 1.51712e-101 1.04188e-100 6.98857e-100 4.57627e-99 2.92386e-98 1.82173e-97 1.10622e-96 6.54288e-96 3.76695e-95 2.10968e-94 1.14855e-93 6.07402e-93 3.1179e-92 1.55225e-91 7.48881e-91 3.49808e-90 1.58056e-89 6.90138e-89 2.90909e-88 1.18252e-87 4.63014e-87 1.74421e-86 6.31357e-86 2.19307e-85 7.30015e-85 2.32531e-84 7.07696e-84 2.05468e-83 5.68158e-83 1.49381e-82 3.72807e-82 8.81645e-82 1.97239e-81 4.16749e-81 8.30395e-81 1.55827e-80 2.75092e-80 4.56529e-80 7.11984e-80 1.04366e-79 1.43894e-79 1.86845e-79 2.28923e-79 2.65295e-79 2.91718e-79 3.05604e-79 3.0668e-79 2.97022e-79 2.80444e-79 2.61447e-79 2.44106e-79 2.31267e-79 2.24275e-79 2.23194e-79 2.27315e-79 2.35644e-79 2.47177e-79 2.60873e-79 2.75484e-79 2.89467e-79 3.01181e-79 3.09364e-79 3.13624e-79 3.1462e-79 3.13748e-79 3.12503e-79 3.11868e-79 3.12081e-79 3.12846e-79 3.13759e-79 3.14677e-79 3.15874e-79 3.17994e-79 3.21887e-79 3.28336e-79 3.37684e-79 3.49466e-79 3.6222e-79 3.73669e-79 3.81306e-79 3.83184e-79 3.78566e-79 3.68125e-79 3.536e-79 3.37108e-79 3.20499e-79 3.05049e-79 2.9153e-79 2.80436e-79 2.72123e-79 2.66781e-79 2.64314e-79 2.6429e-79 2.65988e-79 2.68457e-79 2.70515e-79 2.70716e-79 2.67461e-79 2.59397e-79 2.46012e-79 2.28114e-79 2.07877e-79 1.88358e-79 1.72706e-79 1.63411e-79 1.61862e-79 1.6823e-79 1.81589e-79 2.00109e-79 2.21302e-79 2.42338e-79 2.60485e-79 2.73606e-79 2.80547e-79 2.81259e-79 2.76624e-79 2.68105e-79 2.57419e-79 2.46311e-79 2.36387e-79 2.28975e-79 2.24951e-79 2.24635e-79 2.27793e-79 2.33798e-79 2.41888e-79 2.51427e-79 2.61961e-79 2.73006e-79 2.83638e-79 2.92206e-79 2.96494e-79 2.94394e-79 2.84765e-79 2.67962e-79 2.45686e-79 2.20286e-79 1.93915e-79 1.68003e-79 1.43206e-79 1.19707e-79 9.75958e-80 7.71088e-80 5.86644e-80 4.27343e-80 2.96666e-80 1.95551e-80 1.22069e-80 7.20354e-81 4.01497e-81 2.11301e-81 1.05033e-81 4.93475e-82 2.1936e-82 9.23722e-83 3.68995e-83 1.40034e-83 5.05638e-84 1.73982e-84 5.71328e-85 1.7932e-85 5.38713e-86 1.55125e-86 4.28726e-87 1.13871e-87 2.91012e-88 7.16449e-89 1.70106e-89 3.89923e-90 8.63773e-91 1.85098e-91 3.84049e-92 7.72204e-93 1.50591e-93 2.8506e-94 5.24165e-95 9.3694e-96 1.62917e-96 2.7575e-97 4.54607e-98 7.30447e-99 1.14452e-99 1.74977e-100 2.6115e-101 3.80691e-102 5.423e-103 7.55256e-104 1.0288e-104 1.37132e-105 1.78937e-106 2.28658e-107 2.86263e-108 3.51235e-109 4.22515e-110 4.98478e-111 5.76889e-112 6.47407e-113 0 
0 1.83891e-160 3.03812e-159 4.9481e-158 7.9718e-157 1.27034e-155 2.00208e-154 3.1203e-153 4.8086e-152 7.32652e-151 1.10353e-149 1.64298e-148 2.4176e-147 3.51553e-146 5.05123e-145 7.17048e-144 1.00552e-142 1.39271e-141 1.90505e-140 2.57314e-139 3.43139e-138 4.51716e-137 5.86926e-136 7.52589e-135 9.52185e-134 1.18851e-132 1.4633e-131 1.7768e-130 2.12737e-129 2.51114e-128 2.92174e-127 3.35022e-126 3.78516e-125 4.21297e-124 4.61845e-123 4.98562e-122 5.29861e-121 5.5428e-120 5.70588e-119 5.77883e-118 5.75673e-117 5.63927e-116 5.43086e-115 5.14042e-114 4.78073e-113 4.36749e-112 3.91819e-111 3.45084e-110 2.98272e-109 2.52935e-108 2.10363e-107 1.71532e-106 1.37081e-105 1.07326e-104 8.22928e-104 6.17694e-103 4.53689e-102 3.25933e-101 2.28923e-100 1.57122e-99 1.05332e-98 6.89347e-98 4.40188e-97 2.74109e-96 1.66357e-95 9.83394e-95 5.65863e-94 3.16741e-93 1.72348e-92 9.10962e-92 4.67367e-91 2.32559e-90 1.1214e-89 5.23548e-89 2.3644e-88 1.03188e-87 4.34752e-87 1.76638e-86 6.91299e-86 2.60298e-85 9.41786e-85 3.26994e-84 1.08801e-83 3.46418e-83 1.05388e-82 3.05858e-82 8.45438e-82 2.22204e-81 5.54363e-81 1.31059e-80 2.93113e-80 6.19153e-80 1.23339e-79 2.31398e-79 4.08422e-79 6.77682e-79 1.05674e-78 1.54884e-78 2.13528e-78 2.7725e-78 3.39676e-78 3.93642e-78 4.32855e-78 4.53476e-78 4.55102e-78 4.40809e-78 4.16252e-78 3.88104e-78 3.62406e-78 3.43381e-78 3.3302e-78 3.3142e-78 3.37529e-78 3.49874e-78 3.66965e-78 3.87263e-78 4.08919e-78 4.29646e-78 4.47016e-78 4.59158e-78 4.65494e-78 4.66994e-78 4.65727e-78 4.63904e-78 4.62979e-78 4.6331e-78 4.64456e-78 4.6582e-78 4.67192e-78 4.68974e-78 4.72123e-78 4.77897e-78 4.87454e-78 5.01303e-78 5.18756e-78 5.37646e-78 5.54601e-78 5.6591e-78 5.68688e-78 5.61842e-78 5.4637e-78 5.24843e-78 5.00397e-78 4.75772e-78 4.52863e-78 4.32816e-78 4.16365e-78 4.0404e-78 3.96121e-78 3.92465e-78 3.9243e-78 3.94944e-78 3.98596e-78 4.0163e-78 4.01901e-78 3.97039e-78 3.85043e-78 3.65156e-78 3.38584e-78 3.08551e-78 2.7959e-78 2.56368e-78 2.42578e-78 2.40277e-78 2.49721e-78 2.69535e-78 2.97005e-78 3.28443e-78 3.59652e-78 3.86583e-78 4.06064e-78 4.16382e-78 4.17464e-78 4.10612e-78 3.97996e-78 3.82162e-78 3.65695e-78 3.50982e-78 3.39986e-78 3.34012e-78 3.33533e-78 3.38205e-78 3.47098e-78 3.59087e-78 3.73228e-78 3.88846e-78 4.05221e-78 4.20981e-78 4.33676e-78 4.40025e-78 4.36904e-78 4.22628e-78 3.97718e-78 3.64696e-78 3.27037e-78 2.87929e-78 2.49489e-78 2.12694e-78 1.77814e-78 1.44985e-78 1.14562e-78 8.71674e-79 6.3504e-79 4.40902e-79 2.90663e-79 1.81466e-79 1.07105e-79 5.97072e-80 3.14294e-80 1.56265e-80 7.34365e-81 3.26531e-81 1.37543e-81 5.49611e-82 2.08648e-82 7.5366e-83 2.59419e-83 8.52216e-84 2.67587e-84 8.04219e-85 2.31677e-85 6.40576e-86 1.70215e-86 4.35206e-87 1.07194e-87 2.54632e-88 5.83958e-89 1.29424e-89 2.77482e-90 5.76022e-91 1.15879e-91 2.26099e-92 4.28216e-93 7.87818e-94 1.40897e-94 2.45126e-95 4.15123e-96 6.84757e-97 1.10085e-97 1.72587e-98 2.64003e-99 3.94243e-100 5.75035e-101 8.19617e-102 1.14213e-102 1.5567e-103 2.0762e-104 2.71071e-105 3.46598e-106 4.34173e-107 5.33034e-108 6.41592e-109 7.57398e-110 8.77067e-111 9.84861e-112 0 
0 2.84485e-159 4.69693e-158 7.64461e-157 1.23078e-155 1.95998e-154 3.08691e-153 4.80784e-152 7.40426e-151 1.12738e-149 1.69696e-148 2.52481e-147 3.71273e-146 5.39526e-145 7.74697e-144 1.099e-142 1.54011e-141 2.13176e-140 2.91406e-139 3.93343e-138 5.24198e-137 6.89617e-136 8.95454e-135 1.14746e-133 1.45084e-132 1.80976e-131 2.22674e-130 2.70207e-129 3.23312e-128 3.81391e-127 4.43469e-126 5.08182e-125 5.73792e-124 6.38238e-123 6.99224e-122 7.54336e-121 8.01189e-120 8.37588e-119 8.61692e-118 8.72165e-117 8.6829e-116 8.50046e-115 8.18127e-114 7.73898e-113 7.19304e-112 6.56728e-111 5.8881e-110 5.18263e-109 4.47689e-108 3.79413e-107 3.15364e-106 2.56997e-105 2.05259e-104 1.60611e-103 1.23077e-102 9.23281e-102 6.77745e-101 4.86616e-100 3.41584e-99 2.34313e-98 1.56991e-97 1.02685e-96 6.55335e-96 4.07855e-95 2.47391e-94 1.46162e-93 8.40584e-93 4.70263e-92 2.55747e-91 1.35106e-90 6.92799e-90 3.44554e-89 1.66059e-88 7.74891e-88 3.49776e-87 1.52576e-86 6.42522e-86 2.6093e-85 1.02072e-84 3.8416e-84 1.38931e-83 4.82167e-83 1.60363e-82 5.10382e-82 1.55207e-81 4.50272e-81 1.24416e-80 3.26884e-80 8.15249e-80 1.92675e-79 4.30791e-79 9.09728e-79 1.81178e-78 3.39837e-78 5.99704e-78 9.94905e-78 1.55119e-77 2.2733e-77 3.13379e-77 4.06877e-77 4.98476e-77 5.77666e-77 6.35221e-77 6.65511e-77 6.6794e-77 6.47021e-77 6.11045e-77 5.69797e-77 5.32136e-77 5.04253e-77 4.89069e-77 4.86727e-77 4.95683e-77 5.13778e-77 5.38829e-77 5.6858e-77 6.00323e-77 6.30709e-77 6.56182e-77 6.74002e-77 6.83319e-77 6.85555e-77 6.83734e-77 6.81094e-77 6.79765e-77 6.80271e-77 6.81968e-77 6.83985e-77 6.86011e-77 6.88637e-77 6.93262e-77 7.0173e-77 7.15737e-77 7.3603e-77 7.61598e-77 7.89266e-77 8.14099e-77 8.3066e-77 8.34723e-77 8.24688e-77 8.02012e-77 7.7046e-77 7.34623e-77 6.98516e-77 6.64921e-77 6.3552e-77 6.11394e-77 5.93323e-77 5.81714e-77 5.76355e-77 5.76305e-77 5.79986e-77 5.85328e-77 5.89752e-77 5.90109e-77 5.82927e-77 5.65276e-77 5.36056e-77 4.97039e-77 4.52958e-77 4.1046e-77 3.76386e-77 3.56152e-77 3.52772e-77 3.66622e-77 3.95685e-77 4.35984e-77 4.82105e-77 5.27899e-77 5.67425e-77 5.96031e-77 6.11202e-77 6.12826e-77 6.0281e-77 5.84334e-77 5.6113e-77 5.3699e-77 5.15414e-77 4.99283e-77 4.9051e-77 4.89792e-77 4.96627e-77 5.09652e-77 5.27224e-77 5.47954e-77 5.70856e-77 5.94866e-77 6.17968e-77 6.36572e-77 6.45868e-77 6.41284e-77 6.2035e-77 5.83829e-77 5.35415e-77 4.80193e-77 4.22834e-77 3.66439e-77 3.12438e-77 2.61234e-77 2.13028e-77 1.68344e-77 1.28102e-77 9.33357e-78 6.48093e-78 4.27307e-78 2.66813e-78 1.57504e-78 8.7819e-79 4.62369e-79 2.2994e-79 1.08087e-79 4.80732e-80 2.02556e-80 8.09651e-81 3.07469e-81 1.111e-81 3.82559e-82 1.25722e-82 3.94912e-83 1.18737e-83 3.42198e-84 9.46571e-85 2.51635e-85 6.43674e-86 1.58615e-86 3.76955e-87 8.649e-88 1.91784e-88 4.11383e-89 8.54414e-90 1.71972e-90 3.35717e-91 6.36155e-92 1.17099e-92 2.09537e-93 3.64739e-94 6.18024e-95 1.02e-95 1.64072e-96 2.57367e-97 3.93911e-98 5.88571e-99 8.58965e-100 1.22501e-100 1.70803e-101 2.32936e-102 3.1085e-103 4.06089e-104 5.19539e-105 6.51196e-106 7.99948e-107 9.63441e-108 1.13802e-108 1.31862e-109 1.48156e-110 0 
0 4.35123e-158 7.17919e-157 1.16768e-155 1.87871e-154 2.98979e-153 4.70568e-152 7.32417e-151 1.1272e-149 1.71515e-148 2.57996e-147 3.83604e-146 5.63716e-145 8.18639e-144 1.1747e-142 1.66535e-141 2.33225e-140 3.2261e-139 4.4071e-138 5.94487e-137 7.91741e-136 1.04091e-134 1.35072e-133 1.72973e-132 2.18564e-131 2.72459e-130 3.35021e-129 4.06274e-128 4.8581e-127 5.72714e-126 6.65509e-125 7.62138e-124 8.5999e-123 9.55976e-122 1.04666e-120 1.12845e-119 1.19779e-118 1.25142e-117 1.28663e-116 1.30146e-115 1.29488e-114 1.26689e-113 1.21857e-112 1.15198e-111 1.07006e-110 9.76377e-110 8.7487e-109 7.69585e-108 6.64387e-107 5.62725e-106 4.67453e-105 3.80712e-104 3.03888e-103 2.37646e-102 1.82003e-101 1.36453e-100 1.00107e-99 7.18345e-99 5.0396e-98 3.45501e-97 2.31355e-96 1.5124e-95 9.6468e-95 6.00048e-94 3.63769e-93 2.14802e-92 1.23467e-91 6.90366e-91 3.75248e-90 1.98133e-89 1.01546e-88 5.04766e-88 2.43151e-87 1.13406e-86 5.11648e-86 2.23079e-85 9.38969e-85 3.8114e-84 1.49027e-83 5.60628e-83 2.02661e-82 7.03042e-82 2.33726e-81 7.43567e-81 2.2603e-80 6.55485e-80 1.81053e-79 4.75525e-79 1.18557e-78 2.80108e-78 6.26098e-78 1.32182e-77 2.63184e-77 4.9355e-77 8.70793e-77 1.44441e-76 2.25172e-76 3.2996e-76 4.54822e-76 5.90488e-76 7.23402e-76 8.38321e-76 9.21863e-76 9.6586e-76 9.69449e-76 9.39174e-76 8.87056e-76 8.27283e-76 7.72704e-76 7.32294e-76 7.10291e-76 7.069e-76 7.19883e-76 7.46113e-76 7.82422e-76 8.25543e-76 8.71555e-76 9.15607e-76 9.52546e-76 9.78408e-76 9.91958e-76 9.95251e-76 9.92665e-76 9.88885e-76 9.86997e-76 9.87761e-76 9.9025e-76 9.93197e-76 9.96157e-76 9.99983e-76 1.0067e-75 1.01898e-75 1.03928e-75 1.06869e-75 1.10572e-75 1.1458e-75 1.18177e-75 1.20575e-75 1.21162e-75 1.19708e-75 1.16421e-75 1.11848e-75 1.06653e-75 1.01418e-75 9.65456e-76 9.22817e-76 8.8783e-76 8.61628e-76 8.44798e-76 8.37032e-76 8.36961e-76 8.42293e-76 8.5002e-76 8.56399e-76 8.56857e-76 8.46365e-76 8.20683e-76 7.78225e-76 7.21571e-76 6.57588e-76 5.95916e-76 5.46474e-76 5.17113e-76 5.12203e-76 5.3229e-76 5.74447e-76 6.32907e-76 6.99821e-76 7.6627e-76 8.23638e-76 8.65176e-76 8.87236e-76 8.89647e-76 8.7517e-76 8.48412e-76 8.14786e-76 7.7979e-76 7.48502e-76 7.25102e-76 7.12362e-76 7.11298e-76 7.21185e-76 7.40051e-76 7.65516e-76 7.9557e-76 8.28776e-76 8.63589e-76 8.97079e-76 9.24039e-76 9.375e-76 9.3084e-76 9.00484e-76 8.47536e-76 7.77343e-76 6.97269e-76 6.14075e-76 5.32256e-76 4.53884e-76 3.79548e-76 3.09544e-76 2.44641e-76 1.8618e-76 1.35666e-76 9.42127e-77 6.2125e-77 3.87967e-77 2.2906e-77 1.27739e-77 6.72685e-78 3.34607e-78 1.57326e-78 6.99919e-79 2.94995e-79 1.17951e-79 4.48073e-80 1.61961e-80 5.57895e-81 1.83413e-81 5.7635e-82 1.7336e-82 4.99826e-83 1.38319e-83 3.67866e-84 9.41409e-85 2.32089e-85 5.51828e-86 1.26674e-86 2.81023e-87 6.03101e-88 1.25322e-88 2.52369e-89 4.92917e-90 9.34519e-91 1.7211e-91 3.08136e-92 5.36657e-93 9.09815e-94 1.5024e-94 2.418e-95 3.79503e-96 5.81169e-97 8.68854e-98 1.26873e-98 1.81042e-99 2.52571e-100 3.44648e-101 4.60195e-102 6.01539e-103 7.70045e-104 9.6575e-105 1.18706e-105 1.43052e-106 1.69075e-107 1.96024e-108 2.20375e-109 0 