# vtk DataFile Version 3.0
Gray-Scott Simulation Output
ASCII
DATASET STRUCTURED_POINTS
DIMENSIONS 256 256 1
SPACING 1.0 1.0 1.0
ORIGIN 0 0 0
POINT_DATA 65536
SCALARS u double
LOOKUP_TABLE default
0 0 0 0 0 0 0 0 0 0 0 0 0 0 0 0 0 0 0 0 0 0 0 0 0 0 0 0 0 0 0 0 0 0 0 0 0 0 0 0 0 0 0 0 0 0 0 0 0 0 0 0 0 0 0 0 0 0 0 0 0 0 0 0 0 0 0 0 0 0 0 0 0 0 0 0 0 0 0 0 0 0 0 0 0 0 0 0 0 0 0 0 0 0 0 0 0 0 0 0 0 0 0 0 0 0 0 0 0 0 0 0 0 0 0 0 0 0 0 0 0 0 0 0 0 0 0 0 0 0 0 0 0 0 0 0 0 0 0 0 0 0 0 0 0 0 0 0 0 0 0 0 0 0 0 0 0 0 0 0 0 0 0 0 0 0 0 0 0 0 0 0 0 0 0 0 0 0 0 0 0 0 0 0 0 0 0 0 0 0 0 0 0 0 0 0 0 0 0 0 0 0 0 0 0 0 0 0 0 0 0 0 0 0 0 0 0 0 0 0 0 0 0 0 0 0 0 0 0 0 0 0 0 0 0 0 0 0 0 0 0 0 0 0 0 0 0 0 0 0 0 0 0 0 0 0 
0 9.65769e-74 3.13331e-73 9.15152e-73 2.62469e-72 7.46088e-72 2.10412e-71 5.88783e-71 1.63466e-70 4.50262e-70 1.23041e-69 3.33548e-69 8.96948e-69 2.39252e-68 6.32996e-68 1.66104e-67 4.32283e-67 1.11569e-66 2.85551e-66 7.24705e-66 1.8237e-65 4.55027e-65 1.1256e-64 2.76041e-64 6.71083e-64 1.61721e-63 3.86297e-63 9.14557e-63 2.1459e-62 4.98988e-62 1.14981e-61 2.62535e-61 5.93948e-61 1.33131e-60 2.95632e-60 6.50331e-60 1.4171e-59 3.05858e-59 6.53825e-59 1.38419e-58 2.90194e-58 6.02438e-58 1.23832e-57 2.52012e-57 5.0774e-57 1.01266e-56 1.99918e-56 3.90638e-56 7.55438e-56 1.44574e-55 2.73787e-55 5.13019e-55 9.51082e-55 1.74434e-54 3.16472e-54 5.67935e-54 1.00805e-53 1.76952e-53 3.07168e-53 5.27247e-53 8.94809e-53 1.50138e-52 2.49034e-52 4.0832e-52 6.6173e-52 1.0599e-51 1.67772e-51 2.62427e-51 4.05603e-51 6.19391e-51 9.34479e-51 1.39278e-50 2.05059e-50 2.98213e-50 4.28353e-50 6.07686e-50 8.51406e-50 1.17802e-49 1.60957e-49 2.17167e-49 2.89327e-49 3.80615e-49 4.94403e-49 6.34118e-49 8.03076e-49 1.00426e-48 1.24009e-48 1.51214e-48 1.82093e-48 2.16564e-48 2.54398e-48 2.95206e-48 3.38441e-48 3.83407e-48 4.29284e-48 4.75158e-48 5.20067e-48 5.6305e-48 6.03201e-48 6.39715e-48 6.71937e-48 6.99397e-48 7.21834e-48 7.39201e-48 7.51661e-48 7.59565e-48 7.63422e-48 7.63856e-48 7.61561e-48 7.57258e-48 7.51648e-48 7.45378e-48 7.39011e-48 7.3301e-48 7.27726e-48 7.23401e-48 7.20172e-48 7.18086e-48 7.17119e-48 7.1719e-48 7.18179e-48 7.19946e-48 7.22344e-48 7.25224e-48 7.28446e-48 7.31881e-48 7.35413e-48 7.38933e-48 7.42343e-48 7.45552e-48 7.4847e-48 7.51011e-48 7.53094e-48 7.5464e-48 7.55576e-48 7.55841e-48 7.55385e-48 7.54172e-48 7.52188e-48 7.49433e-48 7.45931e-48 7.4172e-48 7.36856e-48 7.31404e-48 7.25439e-48 7.19037e-48 7.12277e-48 7.05232e-48 6.97976e-48 6.90576e-48 6.83098e-48 6.7561e-48 6.68183e-48 6.60894e-48 6.5383e-48 6.47083e-48 6.40758e-48 6.34959e-48 6.29793e-48 6.25359e-48 6.2174e-48 6.19001e-48 6.17176e-48 6.16268e-48 6.16245e-48 6.17043e-48 6.18567e-48 6.20697e-48 6.23299e-48 6.26231e-48 6.29356e-48 6.32548e-48 6.357e-48 6.38728e-48 6.41573e-48 6.44199e-48 6.46589e-48 6.48735e-48 6.50635e-48 6.52278e-48 6.53639e-48 6.5467e-48 6.55294e-48 6.55399e-48 6.54844e-48 6.53453e-48 6.51023e-48 6.47335e-48 6.42157e-48 6.35258e-48 6.26419e-48 6.15445e-48 6.02177e-48 5.865e-48 5.68359e-48 5.47759e-48 5.24777e-48 4.9956e-48 4.72327e-48 4.43362e-48 4.13012e-48 3.81668e-48 3.49757e-48 3.17726e-48 2.86021e-48 2.55073e-48 2.25281e-48 1.96997e-48 1.70512e-48 1.46052e-48 1.23773e-48 1.03759e-48 8.60254e-49 7.05279e-49 5.71698e-49 4.58132e-49 3.62898e-49 2.84125e-49 2.19851e-49 1.68119e-49 1.27042e-49 9.48647e-50 6.99963e-50 5.10328e-50 3.67641e-50 2.61696e-50 1.84064e-50 1.27923e-50 8.78505e-51 5.96163e-51 3.99783e-51 2.64936e-51 1.73512e-51 1.12308e-51 7.18465e-52 4.54294e-52 2.83942e-52 1.75432e-52 1.07152e-52 6.4704e-53 3.86305e-53 2.28048e-53 1.33121e-53 7.68467e-54 4.38722e-54 2.47726e-54 1.38357e-54 7.64374e-55 4.1774e-55 2.25831e-55 1.20719e-55 6.3701e-56 3.29533e-56 1.62399e-56 6.63777e-57 0 
0 3.1284e-73 1.0152e-72 2.96597e-72 8.50908e-72 2.41951e-71 6.82567e-71 1.91059e-70 5.30618e-70 1.46206e-69 3.99666e-69 1.08381e-68 2.91553e-68 7.77968e-68 2.05904e-67 5.40513e-67 1.40721e-66 3.63331e-66 9.30277e-66 2.36191e-65 5.94611e-65 1.48421e-64 3.67304e-64 9.01155e-64 2.19175e-63 5.28412e-63 1.26276e-62 2.99094e-62 7.02113e-62 1.6334e-61 3.76559e-61 8.60209e-61 1.94705e-60 4.36638e-60 9.70088e-60 2.13509e-59 4.65484e-59 1.00519e-58 2.1499e-58 4.55387e-58 9.55228e-58 1.98411e-57 4.08059e-57 8.30898e-57 1.67497e-56 3.34249e-56 6.60241e-56 1.29083e-55 2.49769e-55 4.78271e-55 9.06239e-55 1.69906e-54 3.15166e-54 5.78359e-54 1.0499e-53 1.88518e-53 3.34796e-53 5.8802e-53 1.0213e-52 1.75398e-52 2.97834e-52 4.99993e-52 8.2977e-52 1.36119e-51 2.20707e-51 3.53681e-51 5.60105e-51 8.76512e-51 1.35532e-50 2.07057e-50 3.12515e-50 4.65964e-50 6.86286e-50 9.98393e-50 1.43455e-49 2.03572e-49 2.85293e-49 3.94829e-49 5.39581e-49 7.2814e-49 9.70222e-49 1.27649e-48 1.65822e-48 2.12689e-48 2.69357e-48 3.3682e-48 4.15877e-48 5.07047e-48 6.1048e-48 7.25884e-48 8.52463e-48 9.88887e-48 1.13329e-47 1.28332e-47 1.43618e-47 1.5888e-47 1.73793e-47 1.88035e-47 2.01301e-47 2.13323e-47 2.23885e-47 2.32831e-47 2.40079e-47 2.45616e-47 2.49504e-47 2.51864e-47 2.52873e-47 2.52744e-47 2.51713e-47 2.50025e-47 2.47917e-47 2.45606e-47 2.43282e-47 2.411e-47 2.39176e-47 2.3759e-47 2.36387e-47 2.3558e-47 2.35159e-47 2.35096e-47 2.3535e-47 2.35872e-47 2.36611e-47 2.37517e-47 2.38543e-47 2.39644e-47 2.40782e-47 2.4192e-47 2.43025e-47 2.44066e-47 2.45014e-47 2.45841e-47 2.4652e-47 2.47024e-47 2.4733e-47 2.47417e-47 2.4727e-47 2.46876e-47 2.4623e-47 2.45334e-47 2.44194e-47 2.42823e-47 2.41239e-47 2.39464e-47 2.37522e-47 2.35437e-47 2.33236e-47 2.30943e-47 2.2858e-47 2.2617e-47 2.23736e-47 2.21297e-47 2.18879e-47 2.16505e-47 2.14204e-47 2.12006e-47 2.09945e-47 2.08056e-47 2.06372e-47 2.04927e-47 2.03749e-47 2.02857e-47 2.02263e-47 2.01968e-47 2.01963e-47 2.02226e-47 2.02725e-47 2.03422e-47 2.04272e-47 2.05231e-47 2.06252e-47 2.07295e-47 2.08325e-47 2.09314e-47 2.10245e-47 2.11106e-47 2.11891e-47 2.12598e-47 2.13229e-47 2.13779e-47 2.14242e-47 2.14602e-47 2.14834e-47 2.14905e-47 2.14766e-47 2.1436e-47 2.13623e-47 2.12482e-47 2.10859e-47 2.08678e-47 2.05867e-47 2.0236e-47 1.98102e-47 1.93053e-47 1.87192e-47 1.80519e-47 1.73056e-47 1.64848e-47 1.55965e-47 1.46499e-47 1.36562e-47 1.26282e-47 1.15799e-47 1.05261e-47 9.48158e-48 8.46069e-48 7.47674e-48 6.54153e-48 5.66493e-48 4.85461e-48 4.11589e-48 3.45174e-48 2.86285e-48 2.34789e-48 1.90376e-48 1.52598e-48 1.20904e-48 9.46777e-49 7.32715e-49 5.60371e-49 4.23493e-49 3.16249e-49 2.33352e-49 1.70132e-49 1.2256e-49 8.7236e-50 6.13526e-50 4.2635e-50 2.92755e-50 1.98636e-50 1.33181e-50 8.82411e-51 5.77784e-51 3.73891e-51 2.39128e-51 1.51163e-51 9.44529e-52 5.83397e-52 3.56221e-52 2.15035e-52 1.2834e-52 7.57368e-53 4.4195e-53 2.5503e-53 1.45543e-53 8.21501e-54 4.58636e-54 2.5328e-54 1.38365e-54 7.47701e-55 3.99523e-55 2.10736e-55 1.08974e-55 5.36854e-56 2.19375e-56 0 
0 9.11981e-73 2.96033e-72 8.65174e-72 2.48301e-71 7.06297e-71 1.9933e-70 5.58168e-70 1.55079e-69 4.27476e-69 1.16903e-68 3.17151e-68 8.53523e-68 2.27851e-67 6.03321e-67 1.58448e-66 4.12706e-66 1.06608e-65 2.73091e-65 6.93698e-65 1.74725e-64 4.36352e-64 1.08042e-63 2.65211e-63 6.45376e-63 1.55679e-62 3.72233e-62 8.82152e-62 2.07199e-61 4.82303e-61 1.11254e-60 2.54297e-60 5.75933e-60 1.29235e-59 2.873e-59 6.32715e-59 1.38029e-58 2.98256e-58 6.38318e-58 1.35295e-57 2.83983e-57 5.9025e-57 1.21474e-56 2.47513e-56 4.99289e-56 9.97034e-56 1.97078e-55 3.8557e-55 7.4657e-55 1.43056e-54 2.71254e-54 5.08913e-54 9.44656e-54 1.73473e-53 3.15123e-53 5.66219e-53 1.00625e-52 1.76853e-52 3.07372e-52 5.28232e-52 8.97548e-52 1.50774e-51 2.50378e-51 4.10989e-51 6.66792e-51 1.06916e-50 1.69415e-50 2.65266e-50 4.10394e-50 6.27299e-50 9.47262e-50 1.41305e-49 2.08211e-49 3.03027e-49 4.35575e-49 6.18332e-49 8.66833e-49 1.2e-48 1.64035e-48 2.21406e-48 2.95068e-48 3.88263e-48 5.04418e-48 6.47013e-48 8.19399e-48 1.02457e-47 1.26493e-47 1.54198e-47 1.85614e-47 2.20643e-47 2.59033e-47 3.00371e-47 3.44078e-47 3.89425e-47 4.35557e-47 4.81529e-47 5.26349e-47 5.69032e-47 6.08654e-47 6.44404e-47 6.75631e-47 7.01879e-47 7.22907e-47 7.38701e-47 7.49461e-47 7.5558e-47 7.57608e-47 7.56211e-47 7.52122e-47 7.46094e-47 7.38855e-47 7.3107e-47 7.23317e-47 7.16063e-47 7.0966e-47 7.04346e-47 7.00248e-47 6.97404e-47 6.95777e-47 6.95274e-47 6.95764e-47 6.97095e-47 6.99109e-47 7.01651e-47 7.04573e-47 7.0774e-47 7.11032e-47 7.14338e-47 7.17559e-47 7.20601e-47 7.23376e-47 7.25799e-47 7.27789e-47 7.2927e-47 7.30171e-47 7.30432e-47 7.30003e-47 7.28851e-47 7.26961e-47 7.24334e-47 7.20991e-47 7.1697e-47 7.12325e-47 7.07118e-47 7.0142e-47 6.95306e-47 6.8885e-47 6.82123e-47 6.75193e-47 6.68126e-47 6.60984e-47 6.53832e-47 6.46736e-47 6.39771e-47 6.33018e-47 6.26567e-47 6.20518e-47 6.14971e-47 6.10029e-47 6.05787e-47 6.02328e-47 5.99711e-47 5.97971e-47 5.97112e-47 5.97103e-47 5.97882e-47 5.99357e-47 6.01413e-47 6.03921e-47 6.06745e-47 6.09753e-47 6.12825e-47 6.1586e-47 6.18777e-47 6.21524e-47 6.24068e-47 6.26395e-47 6.28504e-47 6.30396e-47 6.32066e-47 6.33495e-47 6.3464e-47 6.35433e-47 6.35771e-47 6.35518e-47 6.34507e-47 6.32544e-47 6.29414e-47 6.24889e-47 6.1874e-47 6.10745e-47 6.00703e-47 5.88446e-47 5.73848e-47 5.56835e-47 5.37395e-47 5.15583e-47 4.91527e-47 4.65422e-47 4.37534e-47 4.08191e-47 3.7777e-47 3.46687e-47 3.15383e-47 2.84301e-47 2.53874e-47 2.24504e-47 1.96551e-47 1.70317e-47 1.46039e-47 1.23882e-47 1.03943e-47 8.62484e-48 7.07627e-48 5.73977e-48 4.60222e-48 3.64735e-48 2.85682e-48 2.21132e-48 1.69144e-48 1.27842e-48 9.54742e-49 7.04503e-49 5.13636e-49 3.69999e-49 2.63341e-49 1.85187e-49 1.28673e-49 8.83394e-50 5.99275e-50 4.01714e-50 2.66099e-50 1.7419e-50 1.12688e-50 7.20494e-51 4.55306e-51 2.84395e-51 1.75596e-51 1.07178e-51 6.46729e-52 3.85831e-52 2.27592e-52 1.3275e-52 7.657e-53 4.36779e-53 2.46419e-53 1.37508e-53 7.59019e-54 4.14444e-54 2.23848e-54 1.1955e-54 6.3028e-55 3.2577e-55 1.60422e-55 6.55332e-56 0 
0 2.61036e-72 8.47589e-72 2.47804e-71 7.11463e-71 2.02458e-70 5.71604e-70 1.60128e-69 4.45081e-69 1.2274e-68 3.35807e-68 9.11435e-68 2.45399e-67 6.55406e-67 1.73626e-66 4.56206e-66 1.18886e-65 3.07252e-65 7.87468e-65 2.00134e-64 5.04353e-64 1.26023e-63 3.12204e-63 7.66796e-63 1.867e-62 4.5062e-62 1.07807e-61 2.55642e-61 6.00809e-61 1.39937e-60 3.22994e-60 7.3874e-60 1.67417e-59 3.75911e-59 8.36223e-59 1.84281e-58 4.02283e-58 8.69849e-58 1.86289e-57 3.95121e-57 8.29931e-57 1.7262e-56 3.55504e-56 7.24887e-56 1.46331e-55 2.9242e-55 5.78429e-55 1.13248e-54 2.19441e-54 4.20797e-54 7.98474e-54 1.49916e-53 2.78483e-53 5.1177e-53 9.3034e-53 1.67287e-52 2.97509e-52 5.23261e-52 9.10081e-52 1.56512e-51 2.66124e-51 4.47354e-51 7.43386e-51 1.22105e-50 1.98233e-50 3.18056e-50 5.0429e-50 7.90078e-50 1.22304e-49 1.87048e-49 2.82604e-49 4.21777e-49 6.2178e-49 9.05335e-49 1.30188e-48 1.84883e-48 2.59276e-48 3.59041e-48 4.9093e-48 6.62787e-48 8.83466e-48 1.16267e-47 1.51066e-47 1.93781e-47 2.45412e-47 3.06846e-47 3.78789e-47 4.61682e-47 5.55622e-47 6.60293e-47 7.74915e-47 8.98213e-47 1.02842e-46 1.16333e-46 1.30035e-46 1.43661e-46 1.56913e-46 1.69495e-46 1.81132e-46 1.91581e-46 2.00651e-46 2.08209e-46 2.14188e-46 2.18589e-46 2.21478e-46 2.22978e-46 2.23259e-46 2.22528e-46 2.21005e-46 2.18922e-46 2.16496e-46 2.1393e-46 2.11395e-46 2.09032e-46 2.06944e-46 2.052e-46 2.03838e-46 2.02867e-46 2.02272e-46 2.02025e-46 2.02085e-46 2.02405e-46 2.02937e-46 2.03632e-46 2.04446e-46 2.05338e-46 2.06272e-46 2.07214e-46 2.08135e-46 2.09007e-46 2.09804e-46 2.10502e-46 2.11075e-46 2.11502e-46 2.11763e-46 2.11839e-46 2.11717e-46 2.11386e-46 2.10843e-46 2.10087e-46 2.09124e-46 2.07966e-46 2.06628e-46 2.05128e-46 2.03487e-46 2.01726e-46 1.99866e-46 1.97928e-46 1.95932e-46 1.93897e-46 1.9184e-46 1.89779e-46 1.87735e-46 1.85728e-46 1.83782e-46 1.81923e-46 1.80178e-46 1.78579e-46 1.77154e-46 1.75932e-46 1.74934e-46 1.74181e-46 1.7368e-46 1.73434e-46 1.73434e-46 1.73661e-46 1.74089e-46 1.74685e-46 1.75411e-46 1.76229e-46 1.77099e-46 1.77988e-46 1.78866e-46 1.79711e-46 1.80507e-46 1.81246e-46 1.81924e-46 1.82542e-46 1.83101e-46 1.83599e-46 1.84034e-46 1.84392e-46 1.84655e-46 1.84794e-46 1.8477e-46 1.84535e-46 1.84033e-46 1.83201e-46 1.81973e-46 1.8028e-46 1.78058e-46 1.75245e-46 1.7179e-46 1.67653e-46 1.62811e-46 1.57256e-46 1.51001e-46 1.4408e-46 1.36548e-46 1.28479e-46 1.19968e-46 1.11123e-46 1.02067e-46 9.2928e-47 8.38368e-47 7.49218e-47 6.6303e-47 5.80879e-47 5.03675e-47 4.3214e-47 3.66783e-47 3.07908e-47 2.55611e-47 2.09805e-47 1.70243e-47 1.36548e-47 1.08247e-47 8.48059e-48 6.56568e-48 5.02284e-48 3.79677e-48 2.83568e-48 2.09251e-48 1.52559e-48 1.09892e-48 7.82077e-49 5.49914e-49 3.8204e-49 2.62242e-49 1.77863e-49 1.192e-49 7.89391e-50 5.16596e-50 3.34098e-50 2.13543e-50 1.34899e-50 8.42302e-51 5.19866e-51 3.17181e-51 1.91313e-51 1.14085e-51 6.72661e-52 3.92169e-52 2.26096e-52 1.2891e-52 7.26916e-53 4.05434e-53 2.23678e-53 1.22071e-53 6.58979e-54 3.51756e-54 1.85352e-54 9.57542e-55 4.71322e-55 1.92476e-55 0 
0 7.405e-72 2.40516e-71 7.03445e-71 2.02045e-70 5.75183e-70 1.62461e-69 4.5531e-69 1.2661e-68 3.49306e-68 9.56105e-68 2.59622e-67 6.99347e-67 1.86869e-66 4.95281e-66 1.30201e-65 3.3947e-65 8.77789e-65 2.2509e-64 5.72368e-64 1.44319e-63 3.60809e-63 8.94358e-63 2.19786e-62 5.35447e-62 1.29311e-61 3.09553e-61 7.34485e-61 1.72725e-60 4.02552e-60 9.29735e-60 2.12783e-59 4.82533e-59 1.08418e-58 2.4134e-58 5.3221e-58 1.16261e-57 2.51563e-57 5.39132e-57 1.14432e-56 2.4053e-56 5.00649e-56 1.03182e-55 2.10547e-55 4.2534e-55 8.50612e-55 1.68384e-54 3.29922e-54 6.39772e-54 1.22775e-53 2.33147e-53 4.38074e-53 8.14382e-53 1.49774e-52 2.72478e-52 4.90321e-52 8.72659e-52 1.53598e-51 2.67343e-51 4.60102e-51 7.82896e-51 1.31699e-50 2.19002e-50 3.59971e-50 5.84792e-50 9.38888e-50 1.48959e-49 2.33521e-49 3.61705e-49 5.535e-49 8.36725e-49 1.24944e-48 1.84283e-48 2.68447e-48 3.86198e-48 5.48669e-48 7.69723e-48 1.06625e-47 1.45834e-47 1.96934e-47 2.62558e-47 3.45589e-47 4.49073e-47 5.76089e-47 7.29588e-47 9.12186e-47 1.12595e-46 1.37213e-46 1.65095e-46 1.96142e-46 2.30111e-46 2.66614e-46 3.05117e-46 3.4495e-46 3.85335e-46 4.25414e-46 4.64293e-46 5.01092e-46 5.3499e-46 5.65276e-46 5.91386e-46 6.12937e-46 6.29747e-46 6.41834e-46 6.49413e-46 6.52869e-46 6.52725e-46 6.49604e-46 6.44183e-46 6.37151e-46 6.29168e-46 6.20834e-46 6.12662e-46 6.05066e-46 5.9835e-46 5.92715e-46 5.88265e-46 5.85019e-46 5.82934e-46 5.81915e-46 5.81836e-46 5.82554e-46 5.83919e-46 5.85789e-46 5.88028e-46 5.90513e-46 5.93135e-46 5.95795e-46 5.98404e-46 6.00882e-46 6.0315e-46 6.05138e-46 6.06775e-46 6.07997e-46 6.08744e-46 6.08966e-46 6.0862e-46 6.07679e-46 6.0613e-46 6.03973e-46 6.01227e-46 5.97922e-46 5.94102e-46 5.8982e-46 5.85135e-46 5.80107e-46 5.74798e-46 5.69267e-46 5.6357e-46 5.57759e-46 5.51887e-46 5.46005e-46 5.40168e-46 5.34436e-46 5.28878e-46 5.23567e-46 5.18584e-46 5.14014e-46 5.09943e-46 5.06449e-46 5.036e-46 5.01448e-46 5.00021e-46 4.99323e-46 4.99328e-46 4.99984e-46 5.01216e-46 5.02928e-46 5.05013e-46 5.07359e-46 5.09856e-46 5.12405e-46 5.14924e-46 5.17348e-46 5.19636e-46 5.21764e-46 5.23725e-46 5.2552e-46 5.27156e-46 5.28633e-46 5.29941e-46 5.31051e-46 5.31908e-46 5.32431e-46 5.32513e-46 5.32015e-46 5.30776e-46 5.28616e-46 5.25341e-46 5.20752e-46 5.14656e-46 5.06872e-46 4.97245e-46 4.85653e-46 4.72014e-46 4.56301e-46 4.38539e-46 4.18817e-46 3.97285e-46 3.74152e-46 3.49685e-46 3.24197e-46 2.98039e-46 2.71585e-46 2.45219e-46 2.19317e-46 1.94234e-46 1.70289e-46 1.47755e-46 1.26849e-46 1.07727e-46 9.04823e-47 7.51502e-47 6.17097e-47 5.00925e-47 4.01915e-47 3.18707e-47 2.4975e-47 1.93395e-47 1.47972e-47 1.11865e-47 8.35539e-48 6.16581e-48 4.49527e-48 3.2379e-48 2.30416e-48 1.61997e-48 1.12527e-48 7.72275e-49 5.23679e-49 3.50876e-49 2.32303e-49 1.5198e-49 9.82596e-50 6.27827e-50 3.96467e-50 2.47459e-50 1.5267e-50 9.31088e-51 5.61358e-51 3.34605e-51 1.97196e-51 1.14913e-51 6.62183e-52 3.77359e-52 2.12683e-52 1.18562e-52 6.53762e-53 3.56597e-53 1.924e-53 1.02646e-53 5.40585e-54 2.79126e-54 1.37329e-54 5.6063e-55 0 
0 2.08404e-71 6.77114e-71 1.98114e-70 5.69258e-70 1.62125e-69 4.58118e-69 1.28447e-68 3.57337e-68 9.86311e-68 2.70093e-67 7.33759e-67 1.97748e-66 5.28651e-66 1.40185e-65 3.68708e-65 9.61821e-65 2.48835e-64 6.38424e-64 1.6243e-63 4.09784e-63 1.02507e-62 2.54236e-62 6.25141e-62 1.52389e-61 3.68243e-61 8.82061e-61 2.09419e-60 4.92792e-60 1.14924e-59 2.65601e-59 6.08267e-59 1.38031e-58 3.10345e-58 6.91308e-58 1.52556e-57 3.33491e-57 7.22118e-57 1.54871e-56 3.28956e-56 6.91962e-56 1.44135e-55 2.9728e-55 6.07071e-55 1.22732e-54 2.45633e-54 4.86622e-54 9.54198e-54 1.85179e-53 3.55645e-53 6.7589e-53 1.27097e-52 2.36459e-52 4.35214e-52 7.9239e-52 1.42701e-51 2.54171e-51 4.47716e-51 7.79859e-51 1.34316e-50 2.28719e-50 3.85034e-50 6.40737e-50 1.05392e-49 1.71334e-49 2.75264e-49 4.37007e-49 6.85528e-49 1.06248e-48 1.62684e-48 2.46069e-48 3.67642e-48 5.42522e-48 7.90682e-48 1.13802e-47 1.61745e-47 2.26996e-47 3.14551e-47 4.30352e-47 5.81296e-47 7.75167e-47 1.02048e-46 1.32621e-46 1.70144e-46 2.15482e-46 2.69402e-46 3.32501e-46 4.05137e-46 4.87358e-46 5.78843e-46 6.78854e-46 7.86215e-46 8.99315e-46 1.01615e-45 1.13439e-45 1.25148e-45 1.36476e-45 1.47163e-45 1.56967e-45 1.65679e-45 1.73135e-45 1.79226e-45 1.83903e-45 1.87176e-45 1.89113e-45 1.89834e-45 1.895e-45 1.88297e-45 1.86429e-45 1.84104e-45 1.81517e-45 1.78847e-45 1.76245e-45 1.73833e-45 1.717e-45 1.69903e-45 1.68471e-45 1.67408e-45 1.66699e-45 1.66314e-45 1.66215e-45 1.66359e-45 1.667e-45 1.67195e-45 1.67803e-45 1.68488e-45 1.69217e-45 1.69961e-45 1.70694e-45 1.71392e-45 1.72032e-45 1.72594e-45 1.73058e-45 1.73404e-45 1.73617e-45 1.7368e-45 1.73584e-45 1.73318e-45 1.7288e-45 1.7227e-45 1.71492e-45 1.70557e-45 1.69475e-45 1.68262e-45 1.66935e-45 1.65512e-45 1.64008e-45 1.62442e-45 1.60829e-45 1.59183e-45 1.5752e-45 1.55855e-45 1.54201e-45 1.52578e-45 1.51003e-45 1.49498e-45 1.48085e-45 1.4679e-45 1.45636e-45 1.44646e-45 1.43838e-45 1.43229e-45 1.42825e-45 1.42629e-45 1.42632e-45 1.4282e-45 1.43172e-45 1.4366e-45 1.44254e-45 1.44921e-45 1.45632e-45 1.46357e-45 1.47074e-45 1.47765e-45 1.48417e-45 1.49025e-45 1.49588e-45 1.50106e-45 1.50581e-45 1.51016e-45 1.51407e-45 1.51747e-45 1.52021e-45 1.52208e-45 1.52276e-45 1.52188e-45 1.51896e-45 1.51349e-45 1.50492e-45 1.49267e-45 1.47616e-45 1.45488e-45 1.42834e-45 1.39618e-45 1.35814e-45 1.3141e-45 1.26411e-45 1.20839e-45 1.14735e-45 1.08157e-45 1.0118e-45 9.38924e-46 8.63952e-46 7.87964e-46 7.12072e-46 6.37377e-46 5.64918e-46 4.95639e-46 4.30347e-46 3.69692e-46 3.14146e-46 2.64001e-46 2.19373e-46 1.80218e-46 1.46347e-46 1.17461e-46 9.31701e-47 7.30292e-47 5.65615e-47 4.32836e-47 3.27253e-47 2.44448e-47 1.80393e-47 1.31517e-47 9.47253e-48 6.74027e-48 4.73827e-48 3.29081e-48 2.25807e-48 1.53087e-48 1.02546e-48 6.78739e-49 4.43923e-49 2.86916e-49 1.83261e-49 1.15685e-49 7.21783e-50 4.45125e-50 2.71352e-50 1.63527e-50 9.74282e-51 5.73913e-51 3.34277e-51 1.9253e-51 1.09662e-51 6.17744e-52 3.44184e-52 1.89685e-52 1.03408e-52 5.57624e-53 2.9733e-53 1.56503e-53 8.07664e-54 3.97181e-54 1.6209e-54 0 
0 5.8194e-71 1.89135e-70 5.53602e-70 1.59137e-69 4.53416e-69 1.28178e-68 3.59546e-68 1.0007e-67 2.76338e-67 7.57084e-67 2.05775e-66 5.54837e-66 1.48402e-65 3.93723e-65 1.03609e-64 2.7042e-64 6.99985e-64 1.7969e-63 4.57428e-63 1.15467e-62 2.89007e-62 7.17208e-62 1.7646e-61 4.30412e-61 1.04072e-60 2.49443e-60 5.92607e-60 1.39539e-59 3.25632e-59 7.53071e-59 1.72582e-58 3.91899e-58 8.8175e-58 1.96553e-57 4.34057e-57 9.49547e-57 2.05759e-56 4.41614e-56 9.38721e-56 1.9761e-55 4.11934e-55 8.50275e-55 1.73769e-54 3.51585e-54 7.0421e-54 1.39621e-53 2.73997e-53 5.32166e-53 1.02287e-52 1.9455e-52 3.66134e-52 6.81729e-52 1.25577e-51 2.2882e-51 4.1241e-51 7.35151e-51 1.29597e-50 2.25918e-50 3.89404e-50 6.63603e-50 1.11798e-49 1.86182e-49 3.06466e-49 4.98573e-49 8.01565e-49 1.27343e-48 1.99893e-48 3.10007e-48 4.74963e-48 7.18832e-48 1.07458e-47 1.58658e-47 2.31348e-47 3.33132e-47 4.7368e-47 6.65036e-47 9.21875e-47 1.26166e-46 1.70464e-46 2.27369e-46 2.99376e-46 3.89119e-46 4.99252e-46 6.32303e-46 7.90498e-46 9.75559e-46 1.18849e-45 1.42939e-45 1.69723e-45 1.98978e-45 2.30349e-45 2.63356e-45 2.974e-45 3.3179e-45 3.6577e-45 3.98555e-45 4.29378e-45 4.57531e-45 4.82405e-45 5.03528e-45 5.20591e-45 5.3346e-45 5.42184e-45 5.46979e-45 5.48212e-45 5.46365e-45 5.42006e-45 5.35742e-45 5.28187e-45 5.19924e-45 5.11477e-45 5.03292e-45 4.95721e-45 4.89024e-45 4.83362e-45 4.78817e-45 4.75393e-45 4.73042e-45 4.71672e-45 4.71164e-45 4.71387e-45 4.72207e-45 4.73492e-45 4.75123e-45 4.76991e-45 4.78999e-45 4.81062e-45 4.83102e-45 4.85051e-45 4.86844e-45 4.8842e-45 4.89722e-45 4.90698e-45 4.91297e-45 4.91479e-45 4.9121e-45 4.90467e-45 4.89238e-45 4.87525e-45 4.85342e-45 4.82714e-45 4.79675e-45 4.76268e-45 4.7254e-45 4.6854e-45 4.64317e-45 4.59917e-45 4.55385e-45 4.50762e-45 4.46091e-45 4.4141e-45 4.36764e-45 4.32201e-45 4.27775e-45 4.23543e-45 4.19572e-45 4.15929e-45 4.12684e-45 4.09899e-45 4.07629e-45 4.05917e-45 4.04785e-45 4.04236e-45 4.0425e-45 4.04786e-45 4.05782e-45 4.07162e-45 4.0884e-45 4.10726e-45 4.12732e-45 4.1478e-45 4.16805e-45 4.18756e-45 4.20602e-45 4.22327e-45 4.23928e-45 4.25411e-45 4.26784e-45 4.28053e-45 4.29214e-45 4.30246e-45 4.31113e-45 4.31752e-45 4.32079e-45 4.31986e-45 4.31344e-45 4.30004e-45 4.27808e-45 4.2459e-45 4.20184e-45 4.14435e-45 4.07203e-45 3.98374e-45 3.87865e-45 3.75637e-45 3.61692e-45 3.46087e-45 3.28927e-45 3.10374e-45 2.90634e-45 2.6996e-45 2.48637e-45 2.26974e-45 2.05293e-45 1.83912e-45 1.63133e-45 1.43234e-45 1.24453e-45 1.06981e-45 9.09618e-46 7.6484e-46 6.35864e-46 5.22601e-46 4.24549e-46 3.40867e-46 2.70455e-46 2.12042e-46 1.6426e-46 1.25719e-46 9.50619e-47 7.10129e-47 5.24061e-47 3.82064e-47 2.75167e-47 1.9578e-47 1.37612e-47 9.55589e-48 6.55575e-48 4.44351e-48 2.97577e-48 1.96907e-48 1.28746e-48 8.31836e-49 5.31129e-49 3.35154e-49 2.09026e-49 1.28853e-49 7.8516e-50 4.72955e-50 2.81651e-50 1.6583e-50 9.65402e-51 5.5575e-51 3.16381e-51 1.78128e-51 9.91929e-52 5.46366e-52 2.9769e-52 1.60438e-52 8.54988e-53 4.49782e-53 2.31993e-53 1.14032e-53 4.65203e-54 0 
0 1.61223e-70 5.24159e-70 1.53483e-69 4.41386e-69 1.25815e-68 3.55831e-68 9.98575e-68 2.78055e-67 7.68196e-67 2.10564e-66 5.72594e-66 1.54467e-65 4.13362e-65 1.09726e-64 2.88898e-64 7.54432e-64 1.95393e-63 5.01866e-63 1.2783e-62 3.22865e-62 8.08586e-62 2.00782e-61 4.943e-61 1.20642e-60 2.91893e-60 7.00066e-60 1.66425e-59 3.92133e-59 9.1571e-59 2.11916e-58 4.85987e-58 1.10436e-57 2.48652e-57 5.54677e-57 1.22582e-56 2.6836e-56 5.81951e-56 1.24997e-55 2.65907e-55 5.60195e-55 1.16869e-54 2.41421e-54 4.9378e-54 9.99868e-54 2.00432e-53 3.97714e-53 7.81125e-53 1.51838e-52 2.92087e-52 5.5601e-52 1.04726e-51 1.95158e-51 3.59785e-51 6.56127e-51 1.18353e-50 2.11147e-50 3.72527e-50 6.49925e-50 1.12114e-49 1.9121e-49 3.22385e-49 5.37295e-49 8.85084e-49 1.44096e-48 2.31832e-48 3.68565e-48 5.78939e-48 8.98447e-48 1.37739e-47 2.08587e-47 3.11998e-47 4.60908e-47 6.72421e-47 9.68729e-47 1.37805e-46 1.93555e-46 2.68406e-46 3.67456e-46 4.96617e-46 6.62555e-46 8.72552e-46 1.13427e-45 1.45544e-45 1.84337e-45 2.3045e-45 2.84376e-45 3.46396e-45 4.16519e-45 4.94429e-45 5.7945e-45 6.70525e-45 7.66223e-45 8.64775e-45 9.6414e-45 1.06209e-44 1.15633e-44 1.24462e-44 1.32489e-44 1.39538e-44 1.45474e-44 1.5021e-44 1.53712e-44 1.55997e-44 1.57134e-44 1.57234e-44 1.56443e-44 1.54929e-44 1.52874e-44 1.50458e-44 1.47853e-44 1.45212e-44 1.42666e-44 1.40316e-44 1.38237e-44 1.36474e-44 1.3505e-44 1.33964e-44 1.33201e-44 1.32732e-44 1.32521e-44 1.3253e-44 1.32716e-44 1.33043e-44 1.33475e-44 1.33978e-44 1.34526e-44 1.35092e-44 1.35655e-44 1.36195e-44 1.36693e-44 1.37131e-44 1.37494e-44 1.37767e-44 1.37934e-44 1.37986e-44 1.37912e-44 1.37705e-44 1.37363e-44 1.36887e-44 1.36278e-44 1.35546e-44 1.34699e-44 1.3375e-44 1.32711e-44 1.31596e-44 1.30419e-44 1.29193e-44 1.2793e-44 1.26641e-44 1.25339e-44 1.24035e-44 1.2274e-44 1.21468e-44 1.20233e-44 1.19053e-44 1.17945e-44 1.16929e-44 1.16024e-44 1.15247e-44 1.14614e-44 1.14137e-44 1.13822e-44 1.1367e-44 1.13675e-44 1.13826e-44 1.14106e-44 1.14493e-44 1.14964e-44 1.15492e-44 1.16054e-44 1.16628e-44 1.17195e-44 1.17742e-44 1.18261e-44 1.18746e-44 1.19199e-44 1.1962e-44 1.20014e-44 1.20382e-44 1.20724e-44 1.21034e-44 1.21304e-44 1.21516e-44 1.21648e-44 1.21668e-44 1.21542e-44 1.21227e-44 1.20679e-44 1.19849e-44 1.18691e-44 1.17158e-44 1.1521e-44 1.12812e-44 1.09938e-44 1.06575e-44 1.0272e-44 9.83874e-45 9.36044e-45 8.84143e-45 8.28745e-45 7.70554e-45 7.10375e-45 6.49089e-45 5.87613e-45 5.26863e-45 4.67718e-45 4.1098e-45 3.57345e-45 3.07382e-45 2.61513e-45 2.20012e-45 1.83003e-45 1.50473e-45 1.22289e-45 9.8219e-46 7.79532e-46 6.11317e-46 4.73655e-46 3.62573e-46 2.74188e-46 2.04836e-46 1.51168e-46 1.10206e-46 7.93672e-47 5.64639e-47 3.96828e-47 2.75515e-47 1.88978e-47 1.2806e-47 8.57386e-48 5.67171e-48 3.70723e-48 2.39446e-48 1.52831e-48 9.64031e-49 6.00995e-49 3.70323e-49 2.25554e-49 1.35804e-49 8.08343e-50 4.75701e-50 2.76796e-50 1.5926e-50 9.06161e-51 5.09909e-51 2.83792e-51 1.56229e-51 8.50737e-52 4.58237e-52 2.44057e-52 1.28317e-52 6.61483e-53 3.2498e-53 1.32532e-53 0 
0 4.43128e-70 1.44115e-69 4.22169e-69 1.21459e-68 3.46369e-68 9.80043e-68 2.75159e-67 7.66545e-67 2.11879e-66 5.81051e-66 1.58086e-65 4.26682e-65 1.14242e-64 3.03412e-64 7.9929e-64 2.08842e-63 5.41191e-63 1.39084e-62 3.54467e-62 8.95821e-62 2.24486e-61 5.57769e-61 1.37402e-60 3.35565e-60 8.12423e-60 1.94977e-59 4.63822e-59 1.09361e-58 2.55556e-58 5.9183e-58 1.35821e-57 3.08862e-57 6.95928e-57 1.55358e-56 3.43595e-56 7.52784e-56 1.63371e-55 3.51178e-55 7.4765e-55 1.57636e-54 3.29128e-54 6.80446e-54 1.39287e-53 2.82278e-53 5.66322e-53 1.12469e-52 2.21079e-52 4.30106e-52 8.2809e-52 1.57767e-51 2.97412e-51 5.54705e-51 1.0235e-50 1.86812e-50 3.37261e-50 6.02192e-50 1.06334e-49 1.85669e-49 3.20549e-49 5.4714e-49 9.23232e-49 1.5399e-48 2.53863e-48 4.13615e-48 6.65949e-48 1.05948e-47 1.6654e-47 2.58626e-47 3.96753e-47 6.01206e-47 8.99803e-47 1.33001e-46 1.94141e-46 2.7983e-46 3.98254e-46 5.59608e-46 7.76318e-46 1.06317e-45 1.4373e-45 1.91803e-45 2.52647e-45 3.28478e-45 4.21525e-45 5.33901e-45 6.67449e-45 8.23569e-45 1.00304e-44 1.20584e-44 1.431e-44 1.67649e-44 1.93917e-44 2.21482e-44 2.49824e-44 2.78344e-44 3.06392e-44 3.33298e-44 3.58411e-44 3.81134e-44 4.00961e-44 4.17508e-44 4.30532e-44 4.39945e-44 4.45812e-44 4.48346e-44 4.47883e-44 4.44858e-44 4.3977e-44 4.33153e-44 4.25538e-44 4.17426e-44 4.09264e-44 4.01427e-44 3.94211e-44 3.87825e-44 3.824e-44 3.77992e-44 3.74597e-44 3.72164e-44 3.70607e-44 3.69818e-44 3.6968e-44 3.70073e-44 3.70884e-44 3.72008e-44 3.7335e-44 3.74828e-44 3.76369e-44 3.7791e-44 3.79391e-44 3.80762e-44 3.81971e-44 3.82974e-44 3.83728e-44 3.84194e-44 3.84338e-44 3.84136e-44 3.83567e-44 3.82624e-44 3.81307e-44 3.79626e-44 3.77601e-44 3.7526e-44 3.72635e-44 3.69763e-44 3.66681e-44 3.63427e-44 3.60037e-44 3.56546e-44 3.52985e-44 3.49386e-44 3.45779e-44 3.42198e-44 3.3868e-44 3.35265e-44 3.32e-44 3.28935e-44 3.26123e-44 3.23617e-44 3.21467e-44 3.19716e-44 3.18397e-44 3.17527e-44 3.17109e-44 3.17129e-44 3.17552e-44 3.18333e-44 3.19411e-44 3.20719e-44 3.22188e-44 3.2375e-44 3.25345e-44 3.26921e-44 3.28444e-44 3.29888e-44 3.31245e-44 3.32514e-44 3.33704e-44 3.34824e-44 3.35882e-44 3.3688e-44 3.37807e-44 3.38636e-44 3.39323e-44 3.39805e-44 3.39999e-44 3.39806e-44 3.39109e-44 3.37781e-44 3.35688e-44 3.32693e-44 3.28664e-44 3.23481e-44 3.1704e-44 3.09263e-44 3.00103e-44 2.89546e-44 2.77623e-44 2.64404e-44 2.50006e-44 2.34585e-44 2.18335e-44 2.01483e-44 1.84277e-44 1.66978e-44 1.49846e-44 1.33135e-44 1.17075e-44 1.01871e-44 8.76862e-45 7.46475e-45 6.28366e-45 5.22931e-45 4.30173e-45 3.49741e-45 2.80999e-45 2.23086e-45 1.74989e-45 1.3561e-45 1.03822e-45 7.85214e-46 5.8664e-46 4.32945e-46 3.15622e-46 2.27288e-46 1.61683e-46 1.13615e-46 7.88685e-47 5.40855e-47 3.66423e-47 2.45262e-47 1.62196e-47 1.05983e-47 6.84297e-48 4.36605e-48 2.75294e-48 1.71552e-48 1.05662e-48 6.43267e-49 3.87122e-49 2.30314e-49 1.35469e-49 7.87844e-50 4.5306e-50 2.57644e-50 1.449e-50 8.05993e-51 4.43448e-51 2.41338e-51 1.29917e-51 6.91531e-52 3.63372e-52 1.87216e-52 9.19314e-53 3.74775e-53 0 