# vtk DataFile Version 3.0
Gray-Scott Simulation Output
ASCII
DATASET STRUCTURED_POINTS
DIMENSIONS 256 256 1
SPACING 1.0 1.0 1.0
ORIGIN 0 0 0
POINT_DATA 65536
SCALARS u double
LOOKUP_TABLE default
0 0 0 0 0 0 0 0 0 0 0 0 0 0 0 0 0 0 0 0 0 0 0 0 0 0 0 0 0 0 0 0 0 0 0 0 0 0 0 0 0 0 0 0 0 0 0 0 0 0 0 0 0 0 0 0 0 0 0 0 0 0 0 0 0 0 0 0 0 0 0 0 0 0 0 0 0 0 0 0 0 0 0 0 0 0 0 0 0 0 0 0 0 0 0 0 0 0 0 0 0 0 0 0 0 0 0 0 0 0 0 0 0 0 0 0 0 0 0 0 0 0 0 0 0 0 0 0 0 0 0 0 0 0 0 0 0 0 0 0 0 0 0 0 0 0 0 0 0 0 0 0 0 0 0 0 0 0 0 0 0 0 0 0 0 0 0 0 0 0 0 0 0 0 0 0 0 0 0 0 0 0 0 0 0 0 0 0 0 0 0 0 0 0 0 0 0 0 0 0 0 0 0 0 0 0 0 0 0 0 0 0 0 0 0 0 0 0 0 0 0 0 0 0 0 0 0 0 0 0 0 0 0 0 0 0 0 0 0 0 0 0 0 0 0 0 0 0 0 0 0 0 0 0 0 0 
0 2.26087e-108 1.49004e-107 9.5068e-107 6.00271e-106 3.75248e-105 2.32227e-104 1.42263e-103 8.62616e-103 5.1766e-102 3.0742e-101 1.8065e-100 1.05031e-99 6.04127e-99 3.43735e-98 1.93445e-97 1.07667e-96 5.92591e-96 3.22494e-95 1.73513e-94 9.22869e-94 4.85166e-93 2.52076e-92 1.29423e-91 6.56556e-91 3.29048e-90 1.62898e-89 7.96498e-89 3.84596e-88 1.83365e-87 8.63093e-87 4.01019e-86 1.83897e-85 8.32183e-85 3.71563e-84 1.63661e-83 7.11031e-83 3.04642e-82 1.28699e-81 5.36007e-81 2.20039e-80 8.90189e-80 3.54847e-79 1.39345e-78 5.38956e-78 2.05276e-77 7.69771e-77 2.8414e-76 1.03219e-75 3.68934e-75 1.2972e-74 4.48574e-74 1.52522e-73 5.09801e-73 1.67469e-72 5.40538e-72 1.71383e-71 5.33643e-71 1.6314e-70 4.8953e-70 1.44143e-69 4.16372e-69 1.17956e-68 3.27633e-68 8.91983e-68 2.37957e-67 6.21845e-67 1.59139e-66 3.987e-66 9.7759e-66 2.34515e-65 5.5024e-65 1.26229e-64 2.83045e-64 6.20155e-64 1.32726e-63 2.77383e-63 5.65902e-63 1.12668e-62 2.18842e-62 4.14569e-62 7.65733e-62 1.37865e-61 2.41885e-61 4.13468e-61 6.88417e-61 1.11623e-60 1.76225e-60 2.70853e-60 4.05234e-60 5.90136e-60 8.36492e-60 1.15411e-59 1.55006e-59 2.0269e-59 2.58111e-59 3.20196e-59 3.87133e-59 4.56454e-59 5.25239e-59 5.90415e-59 6.49112e-59 6.99018e-59 7.38661e-59 7.67588e-59 7.86381e-59 7.96536e-59 8.00208e-59 7.99892e-59 7.98079e-59 7.96958e-59 7.98194e-59 8.02806e-59 8.11151e-59 8.22993e-59 8.37647e-59 8.54143e-59 8.7141e-59 8.88441e-59 9.04415e-59 9.18778e-59 9.31274e-59 9.41922e-59 9.50972e-59 9.58835e-59 9.66008e-59 9.73009e-59 9.80314e-59 9.88305e-59 9.97225e-59 1.00713e-58 1.01787e-58 1.02903e-58 1.03997e-58 1.04985e-58 1.0577e-58 1.06257e-58 1.06362e-58 1.06027e-58 1.05228e-58 1.03983e-58 1.0235e-58 1.00418e-58 9.82974e-59 9.61066e-59 9.39545e-59 9.19288e-59 9.00854e-59 8.84429e-59 8.69814e-59 8.56468e-59 8.43605e-59 8.3032e-59 8.15748e-59 7.99236e-59 7.80486e-59 7.5967e-59 7.3747e-59 7.15042e-59 6.93893e-59 6.75697e-59 6.62051e-59 6.54245e-59 6.53049e-59 6.58579e-59 6.7026e-59 6.8688e-59 7.06749e-59 7.27916e-59 7.48417e-59 7.66522e-59 7.80935e-59 7.90918e-59 7.96342e-59 7.97647e-59 7.95737e-59 7.91816e-59 7.87215e-59 7.83202e-59 7.80836e-59 7.80834e-59 7.835e-59 7.88687e-59 7.95808e-59 8.0388e-59 8.11602e-59 8.17469e-59 8.19897e-59 8.17372e-59 8.08589e-59 7.92586e-59 7.68831e-59 7.37275e-59 6.98348e-59 6.52904e-59 6.02139e-59 5.47479e-59 4.90471e-59 4.32686e-59 3.75624e-59 3.20653e-59 2.68947e-59 2.21452e-59 1.78853e-59 1.41558e-59 1.09707e-59 8.31867e-60 6.16714e-60 4.46737e-60 3.16025e-60 2.18221e-60 1.47035e-60 9.66432e-61 6.1953e-61 3.87291e-61 2.36085e-61 1.4033e-61 8.13401e-62 4.59797e-62 2.53506e-62 1.36346e-62 7.1549e-63 3.6641e-63 1.8316e-63 8.93925e-64 4.26079e-64 1.98388e-64 9.02601e-65 4.01381e-65 1.74512e-65 7.42037e-66 3.08665e-66 1.25643e-66 5.00622e-67 1.95311e-67 7.46306e-68 2.79387e-68 1.02499e-68 3.68625e-69 1.29993e-69 4.49618e-70 1.52573e-70 5.08088e-71 1.66089e-71 5.33083e-72 1.68041e-72 5.20363e-73 1.58335e-73 4.73514e-74 1.39211e-74 4.02441e-75 1.14421e-75 3.19934e-76 8.76488e-77 2.21873e-77 0 
0 1.48906e-107 9.81229e-107 6.25958e-106 3.9518e-105 2.47004e-104 1.5284e-103 9.36176e-103 5.67574e-102 3.40558e-101 2.02219e-100 1.18815e-99 6.9071e-99 3.97239e-98 2.25993e-97 1.27168e-96 7.07706e-96 3.8947e-95 2.1193e-94 1.14014e-93 6.06343e-93 3.18731e-92 1.65586e-91 8.50079e-91 4.31201e-90 2.16087e-89 1.06967e-88 5.22974e-88 2.52503e-87 1.20377e-86 5.66571e-86 2.63228e-85 1.20701e-84 5.46174e-84 2.43848e-83 1.07401e-82 4.66586e-82 1.999e-81 8.44463e-81 3.5169e-80 1.44369e-79 5.84044e-79 2.32806e-78 9.14191e-78 3.53583e-77 1.34671e-76 5.05003e-76 1.86408e-75 6.77162e-75 2.42039e-74 8.5104e-74 2.94297e-73 1.00068e-72 3.34485e-72 1.09881e-71 3.54677e-71 1.12459e-70 3.50185e-70 1.0706e-69 3.21273e-69 9.46052e-69 2.73295e-68 7.74288e-68 2.15081e-67 5.85607e-67 1.56237e-66 4.08325e-66 1.04505e-65 2.61848e-65 6.421e-65 1.5405e-64 3.61481e-64 8.2935e-64 1.85986e-63 4.0754e-63 8.7231e-63 1.82324e-62 3.72006e-62 7.40723e-62 1.43889e-61 2.72608e-61 5.03573e-61 9.06732e-61 1.59102e-60 2.71984e-60 4.52885e-60 7.3438e-60 1.15949e-59 1.78221e-59 2.66658e-59 3.88348e-59 5.50489e-59 7.59536e-59 1.02014e-58 1.33399e-58 1.69876e-58 2.1074e-58 2.54796e-58 3.00421e-58 3.45693e-58 3.8859e-58 4.27224e-58 4.60072e-58 4.86168e-58 5.05214e-58 5.17592e-58 5.24285e-58 5.26713e-58 5.26513e-58 5.25325e-58 5.24586e-58 5.25392e-58 5.28413e-58 5.33882e-58 5.41647e-58 5.51257e-58 5.62076e-58 5.73403e-58 5.84575e-58 5.95055e-58 6.0448e-58 6.12679e-58 6.19668e-58 6.25609e-58 6.30772e-58 6.35482e-58 6.40079e-58 6.44873e-58 6.50116e-58 6.55967e-58 6.62465e-58 6.69504e-58 6.76819e-58 6.83988e-58 6.90462e-58 6.9561e-58 6.988e-58 6.99484e-58 6.9728e-58 6.92038e-58 6.83873e-58 6.73161e-58 6.6049e-58 6.46587e-58 6.32222e-58 6.18111e-58 6.0483e-58 5.92746e-58 5.81978e-58 5.72396e-58 5.63646e-58 5.5521e-58 5.46494e-58 5.36931e-58 5.26091e-58 5.1378e-58 5.00111e-58 4.85531e-58 4.708e-58 4.56909e-58 4.44957e-58 4.35992e-58 4.30863e-58 4.30075e-58 4.33704e-58 4.41373e-58 4.52287e-58 4.65336e-58 4.79238e-58 4.92704e-58 5.04599e-58 5.14069e-58 5.20631e-58 5.242e-58 5.25064e-58 5.23816e-58 5.21247e-58 5.18228e-58 5.15595e-58 5.1404e-58 5.14036e-58 5.15782e-58 5.19181e-58 5.2385e-58 5.29143e-58 5.34207e-58 5.38054e-58 5.39644e-58 5.37984e-58 5.32215e-58 5.21705e-58 5.06104e-58 4.85376e-58 4.59803e-58 4.29941e-58 3.96575e-58 3.60638e-58 3.23147e-58 2.85131e-58 2.47579e-58 2.11389e-58 1.77337e-58 1.46048e-58 1.17974e-58 9.33891e-59 7.23868e-59 5.48953e-59 4.07018e-59 2.94864e-59 2.08604e-59 1.44053e-59 9.70654e-60 6.38009e-60 4.08999e-60 2.5568e-60 1.55855e-60 9.26384e-61 5.36943e-61 3.03507e-61 1.67328e-61 8.99899e-62 4.72202e-62 2.41802e-62 1.20862e-62 5.89828e-63 2.81111e-63 1.30878e-63 5.95403e-64 2.6475e-64 1.15097e-64 4.89361e-65 2.03543e-65 8.2846e-66 3.30071e-66 1.28763e-66 4.9198e-67 1.84164e-67 6.75601e-68 2.42955e-68 8.56706e-69 2.963e-69 1.00541e-69 3.34796e-70 1.09436e-70 3.51236e-71 1.10714e-71 3.4283e-72 1.04313e-72 3.11949e-73 9.17099e-74 2.65117e-74 7.53764e-75 2.1076e-75 5.77394e-76 1.46161e-76 0 
0 9.49389e-107 6.25517e-106 3.98977e-105 2.51845e-104 1.5739e-103 9.73753e-103 5.96357e-102 3.61501e-101 2.1688e-100 1.28763e-99 7.56453e-99 4.39694e-98 2.52843e-97 1.43827e-96 8.09225e-96 4.50291e-95 2.47779e-94 1.34813e-93 7.25186e-93 3.85624e-92 2.02686e-91 1.05288e-90 5.40473e-90 2.74128e-89 1.37361e-88 6.79899e-88 3.32384e-87 1.60469e-86 7.64958e-86 3.60011e-85 1.67249e-84 7.66861e-84 3.46984e-83 1.54908e-82 6.82247e-82 2.96376e-81 1.26971e-80 5.3636e-80 2.23368e-79 9.16902e-79 3.70923e-78 1.47851e-77 5.80578e-77 2.24549e-76 8.55245e-76 3.20709e-75 1.18381e-74 4.30048e-74 1.53715e-73 5.40494e-73 1.86913e-72 6.35567e-72 2.12451e-71 6.97949e-71 2.25296e-70 7.14393e-70 2.22467e-69 6.80181e-69 2.04126e-68 6.01135e-68 1.73669e-67 4.92072e-67 1.367e-66 3.72229e-66 9.93183e-66 2.59594e-65 6.64465e-65 1.66506e-64 4.08348e-64 9.79798e-64 2.29938e-63 5.27612e-63 1.18333e-62 2.59328e-62 5.5514e-62 1.16045e-61 2.36802e-61 4.71565e-61 9.16146e-61 1.7359e-60 3.20697e-60 5.77507e-60 1.01344e-59 1.73263e-59 2.8853e-59 4.67906e-59 7.38817e-59 1.13569e-58 1.69935e-58 2.47498e-58 3.50847e-58 4.84099e-58 6.50217e-58 8.50278e-58 1.0828e-57 1.34328e-57 1.6241e-57 1.91493e-57 2.20349e-57 2.47692e-57 2.72318e-57 2.93257e-57 3.09893e-57 3.22036e-57 3.29931e-57 3.34203e-57 3.35757e-57 3.35634e-57 3.34879e-57 3.34408e-57 3.34916e-57 3.3683e-57 3.40301e-57 3.4523e-57 3.51332e-57 3.58203e-57 3.65397e-57 3.72493e-57 3.7915e-57 3.85138e-57 3.90348e-57 3.94789e-57 3.98565e-57 4.01847e-57 4.04842e-57 4.07764e-57 4.10811e-57 4.14142e-57 4.17858e-57 4.21983e-57 4.26451e-57 4.31094e-57 4.35643e-57 4.39751e-57 4.43016e-57 4.45039e-57 4.45471e-57 4.4407e-57 4.40739e-57 4.35554e-57 4.28752e-57 4.20707e-57 4.11879e-57 4.02759e-57 3.93802e-57 3.85371e-57 3.77701e-57 3.70866e-57 3.64785e-57 3.5923e-57 3.53873e-57 3.48337e-57 3.4226e-57 3.3537e-57 3.27543e-57 3.18851e-57 3.0958e-57 3.00211e-57 2.91377e-57 2.83774e-57 2.78072e-57 2.74808e-57 2.74305e-57 2.76611e-57 2.81487e-57 2.88427e-57 2.96725e-57 3.05566e-57 3.14131e-57 3.21698e-57 3.27724e-57 3.31901e-57 3.34174e-57 3.34728e-57 3.33939e-57 3.32308e-57 3.30391e-57 3.28717e-57 3.27728e-57 3.27723e-57 3.2883e-57 3.30988e-57 3.33951e-57 3.37312e-57 3.40528e-57 3.4297e-57 3.43979e-57 3.42922e-57 3.39253e-57 3.3257e-57 3.22648e-57 3.09465e-57 2.93196e-57 2.74195e-57 2.52959e-57 2.30079e-57 2.06202e-57 1.81982e-57 1.58049e-57 1.34975e-57 1.13256e-57 9.32919e-58 7.53732e-58 5.96763e-58 4.62628e-58 3.50887e-58 2.60193e-58 1.88515e-58 1.33377e-58 9.21102e-59 6.20679e-59 4.0798e-59 2.6154e-59 1.63497e-59 9.96608e-60 5.92354e-60 3.4332e-60 1.94051e-60 1.06977e-60 5.75287e-61 3.01845e-61 1.54554e-61 7.72456e-62 3.76938e-62 1.79632e-62 8.36237e-63 3.80392e-63 1.69127e-63 7.35195e-64 3.12554e-64 1.2999e-64 5.29035e-65 2.10756e-65 8.22099e-66 3.14083e-66 1.17562e-66 4.31237e-67 1.55067e-67 5.46756e-68 1.89088e-68 6.41573e-69 2.13628e-69 6.98259e-70 2.24095e-70 7.06341e-71 2.18713e-71 6.65453e-72 1.98998e-72 5.85019e-73 1.69115e-73 4.80808e-74 1.34437e-74 3.68299e-75 9.32304e-76 0 
0 5.99021e-106 3.94616e-105 2.51662e-104 1.58832e-103 9.92476e-103 6.13944e-102 3.75946e-101 2.27861e-100 1.36684e-99 8.11395e-99 4.76615e-98 2.77e-97 1.59267e-96 9.05862e-96 5.09612e-95 2.83539e-94 1.56003e-93 8.48701e-93 4.56483e-92 2.42714e-91 1.27559e-90 6.62557e-90 3.40077e-89 1.72472e-88 8.64149e-88 4.27695e-87 2.09072e-86 1.00929e-85 4.81092e-85 2.264e-84 1.05171e-83 4.82197e-83 2.18169e-82 9.73946e-82 4.28926e-81 1.86322e-80 7.982e-80 3.37169e-79 1.40411e-78 5.76358e-78 2.33155e-77 9.29348e-77 3.64932e-76 1.41143e-75 5.37577e-75 2.01588e-74 7.44118e-74 2.70323e-73 9.66257e-73 3.39764e-72 1.17501e-71 3.99558e-71 1.33566e-70 4.38817e-70 1.41656e-69 4.49207e-69 1.39895e-68 4.27753e-68 1.28381e-67 3.78102e-67 1.09244e-66 3.09559e-66 8.60049e-66 2.34212e-65 6.24992e-65 1.63375e-64 4.18228e-64 1.04814e-63 2.57083e-63 6.16926e-63 1.44798e-62 3.32292e-62 7.45363e-62 1.63368e-61 3.49764e-61 7.31231e-61 1.49234e-60 2.97222e-60 5.77507e-60 1.09438e-59 2.02205e-59 3.64168e-59 6.39129e-59 1.09281e-58 1.81999e-58 2.95173e-58 4.66111e-58 7.16547e-58 1.07225e-57 1.56174e-57 2.21399e-57 3.05498e-57 4.10343e-57 5.3661e-57 6.83364e-57 8.47763e-57 1.025e-56 1.20855e-56 1.39067e-56 1.56323e-56 1.71864e-56 1.85079e-56 1.95579e-56 2.03244e-56 2.08229e-56 2.10929e-56 2.11912e-56 2.11838e-56 2.11362e-56 2.11064e-56 2.1138e-56 2.12581e-56 2.14761e-56 2.17859e-56 2.21695e-56 2.26015e-56 2.30538e-56 2.35e-56 2.39187e-56 2.42953e-56 2.4623e-56 2.49024e-56 2.51401e-56 2.53466e-56 2.55351e-56 2.5719e-56 2.59107e-56 2.61202e-56 2.63538e-56 2.66131e-56 2.68939e-56 2.71856e-56 2.74714e-56 2.77295e-56 2.79346e-56 2.80616e-56 2.80886e-56 2.80003e-56 2.77909e-56 2.74649e-56 2.70372e-56 2.65315e-56 2.59766e-56 2.54034e-56 2.48404e-56 2.43106e-56 2.38286e-56 2.33992e-56 2.3017e-56 2.26679e-56 2.23312e-56 2.1983e-56 2.16008e-56 2.11672e-56 2.06746e-56 2.01274e-56 1.95437e-56 1.89539e-56 1.83976e-56 1.79188e-56 1.75597e-56 1.73541e-56 1.73223e-56 1.74674e-56 1.77743e-56 1.82112e-56 1.87336e-56 1.92903e-56 1.98297e-56 2.03062e-56 2.06858e-56 2.0949e-56 2.10924e-56 2.11276e-56 2.10781e-56 2.09756e-56 2.08551e-56 2.07498e-56 2.06874e-56 2.0687e-56 2.07565e-56 2.0892e-56 2.10783e-56 2.12896e-56 2.14917e-56 2.16453e-56 2.17086e-56 2.1642e-56 2.14111e-56 2.09903e-56 2.03657e-56 1.95355e-56 1.85109e-56 1.73139e-56 1.59757e-56 1.45335e-56 1.30279e-56 1.15002e-56 9.98992e-57 8.53335e-57 7.16178e-57 5.90055e-57 4.76814e-57 3.77581e-57 2.92758e-57 2.22077e-57 1.64697e-57 1.19338e-57 8.44396e-58 5.83173e-58 3.92983e-58 2.58318e-58 1.65599e-58 1.0352e-58 6.30997e-59 3.75032e-59 2.17352e-59 1.22845e-59 6.77171e-60 3.64133e-60 1.9104e-60 9.78097e-61 4.88803e-61 2.38499e-61 1.13647e-61 5.29003e-62 2.40611e-62 1.06967e-62 4.64937e-63 1.97638e-63 8.21883e-64 3.34458e-64 1.33227e-64 5.19631e-65 1.98506e-65 7.42945e-66 2.72501e-66 9.79791e-67 3.45441e-67 1.19457e-67 4.05287e-68 1.34942e-68 4.41038e-69 1.41536e-69 4.46093e-70 1.38123e-70 4.20232e-71 1.25662e-71 3.69411e-72 1.06785e-72 3.03592e-73 8.48846e-74 2.32543e-74 5.8865e-75 0 
0 3.74188e-105 2.46467e-104 1.57159e-103 9.91736e-103 6.19606e-102 3.83233e-101 2.34639e-100 1.42195e-99 8.52857e-99 5.06213e-98 2.97312e-97 1.72771e-96 9.93263e-96 5.64869e-95 3.17742e-94 1.76766e-93 9.72459e-93 5.28987e-92 2.84492e-91 1.5125e-90 7.94823e-90 4.12802e-89 2.11863e-88 1.07438e-87 5.38262e-87 2.66382e-86 1.30207e-85 6.28522e-85 2.99575e-84 1.4097e-83 6.54818e-83 3.00209e-82 1.35822e-81 6.06306e-81 2.67006e-80 1.15981e-79 4.96844e-79 2.09867e-78 8.73951e-78 3.58732e-77 1.45117e-76 5.78426e-76 2.27133e-75 8.78476e-75 3.3459e-74 1.25471e-73 4.63156e-73 1.68259e-72 6.01453e-72 2.11496e-71 7.31446e-71 2.48738e-70 8.31534e-70 2.73207e-69 8.82009e-69 2.79713e-68 8.71168e-68 2.66395e-67 7.99597e-67 2.35515e-66 6.8053e-66 1.92858e-65 5.35874e-65 1.45947e-64 3.89503e-64 1.0183e-63 2.60708e-63 6.53457e-63 1.60297e-62 3.84717e-62 9.03085e-62 2.07274e-61 4.65001e-61 1.01932e-60 2.18263e-60 4.56374e-60 9.31523e-60 1.85551e-59 3.60578e-59 6.83388e-59 1.26283e-58 2.27461e-58 3.99249e-58 6.82726e-58 1.13715e-57 1.84444e-57 2.91283e-57 4.47822e-57 6.70171e-57 9.7617e-57 1.38393e-56 1.90971e-56 2.56518e-56 3.35461e-56 4.2721e-56 5.29991e-56 6.40797e-56 7.55542e-56 8.69393e-56 9.77268e-56 1.07442e-55 1.15703e-55 1.22267e-55 1.2706e-55 1.30177e-55 1.31867e-55 1.32483e-55 1.32438e-55 1.32141e-55 1.31953e-55 1.32149e-55 1.32895e-55 1.34251e-55 1.36179e-55 1.38567e-55 1.41257e-55 1.44074e-55 1.46853e-55 1.49461e-55 1.51807e-55 1.53849e-55 1.5559e-55 1.57071e-55 1.58358e-55 1.59533e-55 1.6068e-55 1.61874e-55 1.63179e-55 1.64634e-55 1.66248e-55 1.67996e-55 1.69811e-55 1.7159e-55 1.73195e-55 1.74471e-55 1.75261e-55 1.75428e-55 1.74878e-55 1.73574e-55 1.71543e-55 1.68881e-55 1.65732e-55 1.62277e-55 1.58709e-55 1.55204e-55 1.51907e-55 1.48907e-55 1.46234e-55 1.43856e-55 1.41683e-55 1.39586e-55 1.37418e-55 1.35036e-55 1.32334e-55 1.29263e-55 1.25851e-55 1.22211e-55 1.18533e-55 1.15064e-55 1.12077e-55 1.09837e-55 1.08554e-55 1.08355e-55 1.0926e-55 1.11173e-55 1.13897e-55 1.17155e-55 1.20627e-55 1.23991e-55 1.26964e-55 1.29332e-55 1.30975e-55 1.31871e-55 1.32092e-55 1.31785e-55 1.31147e-55 1.30396e-55 1.29739e-55 1.2935e-55 1.29347e-55 1.29779e-55 1.30622e-55 1.31782e-55 1.33098e-55 1.34357e-55 1.35313e-55 1.35707e-55 1.35291e-55 1.33851e-55 1.31228e-55 1.27333e-55 1.22155e-55 1.15763e-55 1.08294e-55 9.99415e-56 9.09372e-56 8.15338e-56 7.19885e-56 6.25487e-56 5.34408e-56 4.48611e-56 3.69685e-56 2.98795e-56 2.36653e-56 1.83519e-56 1.39231e-56 1.03269e-56 7.48349e-57 5.2955e-57 3.65749e-57 2.46476e-57 1.62019e-57 1.03865e-57 6.49273e-58 3.95748e-58 2.35202e-58 1.36306e-58 7.7033e-59 4.24606e-59 2.28303e-59 1.19767e-59 6.1313e-60 3.0638e-60 1.49475e-60 7.12178e-61 3.31468e-61 1.50747e-61 6.70095e-62 2.91226e-62 1.23782e-62 5.14692e-63 2.09426e-63 8.34134e-64 3.25305e-64 1.24258e-64 4.65012e-65 1.70543e-65 6.13139e-66 2.16153e-66 7.47415e-67 2.53559e-67 8.4417e-68 2.75886e-68 8.853e-69 2.79013e-69 8.63851e-70 2.62809e-70 7.85843e-71 2.31007e-71 6.67741e-72 1.89835e-72 5.30767e-73 1.45402e-73 3.68059e-74 0 
0 2.31394e-104 1.52391e-103 9.71576e-103 6.13016e-102 3.8294e-101 2.3682e-100 1.44976e-99 8.7846e-99 5.26813e-98 3.1265e-97 1.83604e-96 1.06681e-95 6.13239e-95 3.48708e-94 1.96128e-93 1.09098e-92 6.00125e-92 3.26415e-91 1.7553e-90 9.33114e-90 4.90308e-89 2.54625e-88 1.3067e-87 6.62588e-87 3.31928e-86 1.64256e-85 8.02823e-85 3.87505e-84 1.84686e-83 8.69021e-83 4.03646e-82 1.85047e-81 8.37158e-81 3.7369e-80 1.6456e-79 7.14788e-79 3.06195e-78 1.29334e-77 5.38577e-77 2.21068e-76 8.94272e-76 3.5645e-75 1.39969e-74 5.4136e-74 2.06194e-73 7.73238e-73 2.85437e-72 1.03699e-71 3.70692e-71 1.30356e-70 4.50851e-70 1.53326e-69 5.12602e-69 1.68431e-68 5.43791e-68 1.72467e-67 5.37193e-67 1.64283e-66 4.93149e-66 1.45267e-65 4.19801e-65 1.18982e-64 3.3064e-64 9.0062e-64 2.40386e-63 6.28534e-63 1.60941e-62 4.03448e-62 9.89819e-62 2.37593e-61 5.57806e-61 1.28045e-60 2.873e-60 6.29881e-60 1.34894e-59 2.82095e-59 5.75881e-59 1.14727e-58 2.22978e-58 4.2266e-58 7.81135e-58 1.40717e-57 2.47022e-57 4.22464e-57 7.03731e-57 1.14156e-56 1.80298e-56 2.77215e-56 4.14887e-56 6.04362e-56 8.56861e-56 1.18245e-55 1.58836e-55 2.07722e-55 2.64539e-55 3.28186e-55 3.96802e-55 4.67855e-55 5.38353e-55 6.05148e-55 6.65303e-55 7.16453e-55 7.57097e-55 7.86774e-55 8.06082e-55 8.16548e-55 8.20373e-55 8.20097e-55 8.1826e-55 8.1709e-55 8.1828e-55 8.22869e-55 8.31223e-55 8.43109e-55 8.57835e-55 8.74424e-55 8.91799e-55 9.08943e-55 9.25031e-55 9.39504e-55 9.52103e-55 9.62848e-55 9.71989e-55 9.79937e-55 9.87191e-55 9.94266e-55 1.00164e-54 1.00969e-54 1.01866e-54 1.02862e-54 1.03939e-54 1.05058e-54 1.06154e-54 1.07143e-54 1.0793e-54 1.08416e-54 1.08518e-54 1.08179e-54 1.07374e-54 1.06122e-54 1.0448e-54 1.02538e-54 1.00408e-54 9.82076e-55 9.6047e-55 9.40142e-55 9.2165e-55 9.05177e-55 8.90518e-55 8.77124e-55 8.64198e-55 8.50823e-55 8.36126e-55 8.19446e-55 8.00485e-55 7.79419e-55 7.56939e-55 7.34219e-55 7.12788e-55 6.94342e-55 6.80502e-55 6.72574e-55 6.71341e-55 6.76923e-55 6.88738e-55 7.05562e-55 7.25684e-55 7.47129e-55 7.6791e-55 7.86276e-55 8.0091e-55 8.11065e-55 8.16608e-55 8.1798e-55 8.16092e-55 8.1216e-55 8.07526e-55 8.03473e-55 8.01069e-55 8.01043e-55 8.03702e-55 8.08902e-55 8.16053e-55 8.24166e-55 8.31932e-55 8.3783e-55 8.40262e-55 8.37694e-55 8.28801e-55 8.12601e-55 7.88543e-55 7.56561e-55 7.17068e-55 6.70909e-55 6.19275e-55 5.63593e-55 5.05423e-55 4.46353e-55 3.87912e-55 3.31503e-55 2.78343e-55 2.29422e-55 1.85466e-55 1.4692e-55 1.13952e-55 8.64648e-56 6.41393e-56 4.64838e-56 3.28956e-56 2.27216e-56 1.53125e-56 1.00657e-56 6.45274e-57 4.03363e-57 2.45852e-57 1.46108e-57 8.46683e-58 4.78468e-58 2.6371e-58 1.41779e-58 7.43695e-59 3.80684e-59 1.90206e-59 9.27859e-60 4.4203e-60 2.05709e-60 9.35423e-61 4.15759e-61 1.80668e-61 7.67812e-62 3.19222e-62 1.29875e-62 5.17223e-63 2.0169e-63 7.70316e-64 2.88244e-64 1.05702e-64 3.79985e-65 1.33945e-65 4.63112e-66 1.57096e-66 5.22973e-67 1.70901e-67 5.48371e-68 1.72814e-68 5.35014e-69 1.62758e-69 4.86647e-70 1.43048e-70 4.13474e-71 1.17544e-71 3.28635e-72 9.00262e-73 2.27881e-73 0 
0 1.41641e-103 9.3269e-103 5.94555e-102 3.75082e-101 2.34274e-100 1.44861e-99 8.8669e-99 5.37207e-98 3.22122e-97 1.91147e-96 1.12238e-95 6.52068e-95 3.74786e-94 2.13092e-93 1.19838e-92 6.66538e-92 3.66612e-91 1.99384e-90 1.07209e-89 5.69865e-89 2.9941e-88 1.55475e-87 7.97813e-87 4.04514e-86 2.02629e-85 1.00265e-84 4.90023e-84 2.36508e-83 1.12714e-82 5.30334e-82 2.46319e-81 1.12917e-80 5.1082e-80 2.28011e-79 1.00405e-78 4.3611e-78 1.86813e-77 7.89068e-77 3.28582e-76 1.34871e-75 5.45585e-75 2.17467e-74 8.53948e-74 3.30287e-73 1.25803e-72 4.7178e-72 1.74161e-71 6.32749e-71 2.26198e-70 7.95481e-70 2.75141e-69 9.35761e-69 3.12866e-68 1.02809e-67 3.31954e-67 1.0529e-66 3.27984e-66 1.00313e-65 3.01153e-65 8.87205e-65 2.56418e-64 7.26838e-64 2.02007e-63 5.50312e-63 1.46904e-62 3.84162e-62 9.83815e-62 2.4666e-61 6.05245e-61 1.45303e-60 3.41187e-60 7.83323e-60 1.75785e-59 3.85454e-59 8.2561e-59 1.72682e-58 3.52576e-58 7.02511e-58 1.36557e-57 2.58886e-57 4.78526e-57 8.62155e-57 1.51368e-56 2.58905e-56 4.31329e-56 6.99759e-56 1.10531e-55 1.6996e-55 2.54387e-55 3.70589e-55 5.25449e-55 7.2514e-55 9.74103e-55 1.27395e-54 1.62243e-54 2.0128e-54 2.43363e-54 2.8694e-54 3.30175e-54 3.71137e-54 4.08026e-54 4.39392e-54 4.64315e-54 4.82515e-54 4.94356e-54 5.00777e-54 5.03125e-54 5.02958e-54 5.0183e-54 5.01106e-54 5.01823e-54 5.04618e-54 5.09714e-54 5.16969e-54 5.25961e-54 5.36094e-54 5.46707e-54 5.5718e-54 5.67008e-54 5.75851e-54 5.83549e-54 5.90116e-54 5.95704e-54 6.00563e-54 6.04997e-54 6.09322e-54 6.13827e-54 6.18746e-54 6.24226e-54 6.30304e-54 6.36881e-54 6.43711e-54 6.50402e-54 6.5644e-54 6.61237e-54 6.64203e-54 6.64827e-54 6.6275e-54 6.57832e-54 6.50184e-54 6.40155e-54 6.28297e-54 6.1529e-54 6.01856e-54 5.88665e-54 5.76254e-54 5.64966e-54 5.54912e-54 5.45964e-54 5.37788e-54 5.29896e-54 5.21726e-54 5.12746e-54 5.0255e-54 4.90956e-54 4.78073e-54 4.64324e-54 4.50427e-54 4.37317e-54 4.26032e-54 4.17564e-54 4.12712e-54 4.11955e-54 4.15367e-54 4.22592e-54 4.32882e-54 4.45191e-54 4.5831e-54 4.71023e-54 4.8226e-54 4.91215e-54 4.97432e-54 5.00827e-54 5.01672e-54 5.00522e-54 4.98121e-54 4.95288e-54 4.9281e-54 4.91339e-54 4.91319e-54 4.92941e-54 4.96115e-54 5.00483e-54 5.05438e-54 5.10183e-54 5.13787e-54 5.15272e-54 5.13701e-54 5.08264e-54 4.98357e-54 4.83642e-54 4.64077e-54 4.39912e-54 4.11661e-54 3.80049e-54 3.45948e-54 3.1031e-54 2.74106e-54 2.38273e-54 2.03672e-54 1.7105e-54 1.41018e-54 1.14022e-54 9.03417e-55 7.00809e-55 5.31839e-55 3.94564e-55 2.85982e-55 2.02399e-55 1.39808e-55 9.42223e-56 6.19379e-56 3.97059e-56 2.48198e-56 1.51272e-56 8.9895e-57 5.20899e-57 2.94341e-57 1.62213e-57 8.72027e-58 4.57368e-58 2.34092e-58 1.16948e-58 5.70425e-59 2.71715e-59 1.26432e-59 5.74852e-60 2.55466e-60 1.10998e-60 4.71662e-61 1.9607e-61 7.97603e-62 3.17604e-62 1.23833e-62 4.72901e-63 1.76934e-63 6.48762e-64 2.33195e-64 8.21926e-65 2.84151e-65 9.63797e-66 3.20819e-66 1.04831e-66 3.36343e-67 1.05987e-67 3.28102e-68 9.98062e-69 2.98403e-69 8.77097e-70 2.53508e-70 7.20649e-71 2.01475e-71 5.51902e-72 1.39698e-72 0 
0 8.58145e-103 5.65001e-102 3.60116e-101 2.27152e-100 1.41859e-99 8.77054e-99 5.36771e-98 3.25164e-97 1.94952e-96 1.1567e-95 6.79112e-95 3.94497e-94 2.26717e-93 1.2889e-92 7.24774e-92 4.03076e-91 2.21679e-90 1.2055e-89 6.48133e-89 3.44482e-88 1.80977e-87 9.39684e-87 4.82156e-86 2.44448e-85 1.2244e-84 6.05818e-84 2.96062e-83 1.42885e-82 6.80919e-82 3.20365e-81 1.4879e-80 6.82052e-80 3.08539e-79 1.37716e-78 6.06418e-78 2.63393e-77 1.12826e-76 4.76552e-76 1.98444e-75 8.14541e-75 3.29502e-74 1.31339e-73 5.15749e-73 1.99484e-72 7.59835e-72 2.84959e-71 1.05199e-70 3.82219e-70 1.36645e-69 4.80571e-69 1.6623e-68 5.65394e-68 1.8905e-67 6.21278e-67 2.00618e-66 6.36388e-66 1.98258e-65 6.06431e-65 1.82079e-64 5.36474e-64 1.5507e-63 4.39614e-63 1.22197e-62 3.32937e-62 8.88896e-62 2.32485e-61 5.95471e-61 1.49318e-60 3.66451e-60 8.79897e-60 2.06643e-59 4.74506e-59 1.06501e-58 2.33572e-58 5.00376e-58 1.04675e-57 2.13757e-57 4.25983e-57 8.2818e-57 1.57031e-56 2.90302e-56 5.23111e-56 9.18548e-56 1.57133e-55 2.61812e-55 4.24795e-55 6.71058e-55 1.03197e-54 1.54472e-54 2.2505e-54 3.19113e-54 4.4041e-54 5.91639e-54 7.73776e-54 9.85459e-54 1.22258e-53 1.4782e-53 1.74288e-53 2.00546e-53 2.25424e-53 2.47826e-53 2.66874e-53 2.82009e-53 2.93061e-53 3.00252e-53 3.04152e-53 3.05579e-53 3.05477e-53 3.0479e-53 3.04346e-53 3.04773e-53 3.06458e-53 3.09535e-53 3.13921e-53 3.19358e-53 3.25486e-53 3.31906e-53 3.38241e-53 3.44187e-53 3.49537e-53 3.54195e-53 3.58169e-53 3.61551e-53 3.64492e-53 3.67177e-53 3.69795e-53 3.72521e-53 3.75497e-53 3.78811e-53 3.82486e-53 3.86462e-53 3.90591e-53 3.94635e-53 3.98283e-53 4.01182e-53 4.02974e-53 4.03349e-53 4.02092e-53 3.99117e-53 3.94491e-53 3.88425e-53 3.81254e-53 3.73389e-53 3.65266e-53 3.57291e-53 3.49789e-53 3.42966e-53 3.36888e-53 3.31481e-53 3.26539e-53 3.21767e-53 3.16826e-53 3.11392e-53 3.0522e-53 2.98201e-53 2.904e-53 2.82072e-53 2.73654e-53 2.65713e-53 2.58876e-53 2.53745e-53 2.50804e-53 2.50344e-53 2.5241e-53 2.56786e-53 2.63018e-53 2.70474e-53 2.78421e-53 2.86123e-53 2.92931e-53 2.98358e-53 3.02126e-53 3.04186e-53 3.04701e-53 3.04007e-53 3.02554e-53 3.0084e-53 2.99339e-53 2.98447e-53 2.98433e-53 2.99413e-53 3.01332e-53 3.03973e-53 3.06971e-53 3.09842e-53 3.12023e-53 3.12922e-53 3.1197e-53 3.08678e-53 3.02679e-53 2.93767e-53 2.81915e-53 2.67272e-53 2.50149e-53 2.30984e-53 2.10302e-53 1.8868e-53 1.66706e-53 1.44948e-53 1.23928e-53 1.04104e-53 8.58443e-54 6.94254e-54 5.50173e-54 4.26859e-54 3.23987e-54 2.40391e-54 1.74254e-54 1.23335e-54 8.51985e-55 5.74206e-55 3.77463e-55 2.41975e-55 1.51252e-55 9.21809e-56 5.47764e-56 3.1738e-56 1.79324e-56 9.88172e-57 5.31166e-57 2.78558e-57 1.42556e-57 7.12093e-58 3.47283e-58 1.65401e-58 7.69527e-59 3.49833e-59 1.55444e-59 6.75298e-60 2.86913e-60 1.19253e-60 4.85048e-61 1.93119e-61 7.52866e-62 2.8747e-62 1.07542e-62 3.94275e-63 1.41704e-63 4.99396e-64 1.72629e-64 5.85469e-65 1.94866e-65 6.36681e-66 2.04257e-66 6.43591e-67 1.9922e-67 6.05966e-68 1.81161e-68 5.32454e-69 1.53887e-69 4.37432e-70 1.22289e-70 3.34974e-71 8.47864e-72 0 
0 5.14546e-102 3.38731e-101 2.15868e-100 1.36145e-99 8.50128e-99 5.2553e-98 3.21592e-97 1.94789e-96 1.16771e-95 6.92752e-95 4.06674e-94 2.36211e-93 1.35735e-92 7.7158e-92 4.33829e-91 2.41245e-90 1.32664e-89 7.21365e-89 3.87805e-88 2.06101e-87 1.08268e-86 5.62113e-86 2.88401e-85 1.46206e-84 7.32273e-84 3.62296e-83 1.77043e-82 8.54396e-82 4.07142e-81 1.91547e-80 8.89584e-80 4.0777e-79 1.84456e-78 8.23298e-78 3.62523e-77 1.57457e-76 6.74466e-76 2.84879e-75 1.18628e-74 4.86929e-74 1.96977e-73 7.85162e-73 3.08329e-72 1.19261e-71 4.54279e-71 1.70374e-70 6.29003e-70 2.28548e-69 8.17115e-69 2.87394e-68 9.94171e-68 3.38171e-67 1.13083e-66 3.71661e-66 1.20026e-65 3.80777e-65 1.18639e-64 3.62935e-64 1.08983e-63 3.21147e-63 9.28412e-63 2.63237e-62 7.31808e-62 1.99418e-61 5.32503e-61 1.39295e-60 3.56839e-60 8.94948e-60 2.19672e-59 5.27554e-59 1.23917e-58 2.84598e-58 6.38886e-58 1.40142e-57 3.00276e-57 6.28269e-57 1.28322e-56 2.5577e-56 4.97343e-56 9.43172e-56 1.74391e-55 3.14295e-55 5.51964e-55 9.44359e-55 1.57368e-54 2.55365e-54 4.0345e-54 6.20497e-54 9.28885e-54 1.3534e-53 1.91919e-53 2.64883e-53 3.55855e-53 4.65419e-53 5.92755e-53 7.3539e-53 8.89147e-53 1.04835e-52 1.20628e-52 1.35589e-52 1.49062e-52 1.60516e-52 1.69617e-52 1.76262e-52 1.80586e-52 1.82931e-52 1.83788e-52 1.83727e-52 1.83312e-52 1.83041e-52 1.83293e-52 1.84298e-52 1.86138e-52 1.88763e-52 1.92018e-52 1.95688e-52 1.99533e-52 2.03327e-52 2.06889e-52 2.10094e-52 2.12885e-52 2.15266e-52 2.17293e-52 2.19056e-52 2.20665e-52 2.22234e-52 2.23867e-52 2.2565e-52 2.27635e-52 2.29835e-52 2.32215e-52 2.34686e-52 2.37106e-52 2.39289e-52 2.41024e-52 2.42096e-52 2.42319e-52 2.41566e-52 2.39784e-52 2.37013e-52 2.33381e-52 2.29087e-52 2.24378e-52 2.19515e-52 2.1474e-52 2.10249e-52 2.06166e-52 2.02529e-52 1.99293e-52 1.96335e-52 1.93479e-52 1.9052e-52 1.87264e-52 1.83566e-52 1.79358e-52 1.74679e-52 1.69685e-52 1.64636e-52 1.59873e-52 1.55771e-52 1.52693e-52 1.50928e-52 1.50652e-52 1.5189e-52 1.54514e-52 1.58252e-52 1.62724e-52 1.67491e-52 1.72111e-52 1.76196e-52 1.79452e-52 1.81714e-52 1.82951e-52 1.83261e-52 1.82846e-52 1.81976e-52 1.80949e-52 1.80049e-52 1.79513e-52 1.79504e-52 1.80089e-52 1.81238e-52 1.8282e-52 1.84616e-52 1.86336e-52 1.87643e-52 1.88182e-52 1.87612e-52 1.85638e-52 1.82041e-52 1.76696e-52 1.69587e-52 1.60802e-52 1.50526e-52 1.3902e-52 1.26599e-52 1.13609e-52 1.00402e-52 8.73192e-53 7.46751e-53 6.27443e-53 5.1751e-53 4.18618e-53 3.31805e-53 2.57479e-53 1.95456e-53 1.45042e-53 1.05148e-53 7.44281e-54 5.14169e-54 3.46541e-54 2.27806e-54 1.46034e-54 9.12789e-55 5.56276e-55 3.30532e-55 1.91498e-55 1.0819e-55 5.96119e-56 3.20391e-56 1.68002e-56 8.59656e-57 4.29356e-57 2.09364e-57 9.97e-58 4.63783e-58 2.10808e-58 9.36558e-59 4.06807e-59 1.72814e-59 7.18178e-60 2.92067e-60 1.16267e-60 4.53198e-61 1.73023e-61 6.47185e-62 2.37242e-62 8.52544e-63 3.00418e-63 1.03835e-63 3.52114e-64 1.17184e-64 3.82832e-65 1.22806e-65 3.86913e-66 1.19756e-66 3.64232e-67 1.08883e-67 3.19998e-68 9.2478e-69 2.62859e-69 7.34814e-70 2.01271e-70 5.09423e-71 0 