# vtk DataFile Version 3.0
Gray-Scott Simulation Output
ASCII
DATASET STRUCTURED_POINTS
DIMENSIONS 256 256 1
SPACING 1.0 1.0 1.0
ORIGIN 0 0 0
POINT_DATA 65536
SCALARS u double
LOOKUP_TABLE default
0 0 0 0 0 0 0 0 0 0 0 0 0 0 0 0 0 0 0 0 0 0 0 0 0 0 0 0 0 0 0 0 0 0 0 0 0 0 0 0 0 0 0 0 0 0 0 0 0 0 0 0 0 0 0 0 0 0 0 0 0 0 0 0 0 0 0 0 0 0 0 0 0 0 0 0 0 0 0 0 0 0 0 0 0 0 0 0 0 0 0 0 0 0 0 0 0 0 0 0 0 0 0 0 0 0 0 0 0 0 0 0 0 0 0 0 0 0 0 0 0 0 0 0 0 0 0 0 0 0 0 0 0 0 0 0 0 0 0 0 0 0 0 0 0 0 0 0 0 0 0 0 0 0 0 0 0 0 0 0 0 0 0 0 0 0 0 0 0 0 0 0 0 0 0 0 0 0 0 0 0 0 0 0 0 0 0 0 0 0 0 0 0 0 0 0 0 0 0 0 0 0 0 0 0 0 0 0 0 0 0 0 0 0 0 0 0 0 0 0 0 0 0 0 0 0 0 0 0 0 0 0 0 0 0 0 0 0 0 0 0 0 0 0 0 0 0 0 0 0 0 0 0 0 0 0 
0 1.25585e-190 2.90047e-189 6.61299e-188 1.49097e-186 3.32384e-185 7.32592e-184 1.59621e-182 3.43778e-181 7.3177e-180 1.53932e-178 3.19959e-177 6.57074e-176 1.33302e-174 2.67122e-173 5.28657e-172 1.03317e-170 1.99366e-169 3.79792e-168 7.14163e-167 1.32539e-165 2.42726e-164 4.38586e-163 7.81789e-162 1.37452e-160 2.38325e-159 4.07447e-158 6.86722e-157 1.14084e-155 1.86775e-154 3.01292e-153 4.78789e-152 7.49387e-151 1.155e-149 1.75261e-148 2.61771e-147 3.84762e-146 5.56419e-145 7.91494e-144 1.1072e-142 1.52273e-141 2.05842e-140 2.73427e-139 3.568e-138 4.57259e-137 5.75342e-136 7.10535e-135 8.60999e-134 1.02338e-132 1.19274e-131 1.36261e-130 1.52531e-129 1.67242e-128 1.79541e-127 1.88639e-126 1.93897e-125 1.94889e-124 1.91462e-123 1.8376e-122 1.72215e-121 1.57515e-120 1.40528e-119 1.22222e-118 1.03567e-117 8.54486e-117 6.85989e-116 5.35498e-115 4.06174e-114 2.99123e-113 2.13707e-112 1.47997e-111 9.92568e-111 6.44068e-110 4.03952e-109 2.4462e-108 1.42866e-107 8.03748e-107 4.35018e-106 2.26204e-105 1.12841e-104 5.39183e-104 2.46368e-103 1.07459e-102 4.46567e-102 1.76454e-101 6.615e-101 2.34734e-100 7.86482e-100 2.48156e-99 7.3532e-99 2.04021e-98 5.28466e-98 1.27402e-97 2.85008e-97 5.89997e-97 1.1275e-96 1.9857e-96 3.22037e-96 4.81187e-96 6.6372e-96 8.47949e-96 1.00783e-95 1.12e-95 1.17017e-95 1.15704e-95 1.09276e-95 9.99392e-96 9.02013e-96 8.21153e-96 7.68216e-96 7.4529e-96 7.48138e-96 7.70209e-96 8.06007e-96 8.52693e-96 9.09106e-96 9.72642e-96 1.03639e-95 1.08952e-95 1.12176e-95 1.12925e-95 1.11754e-95 1.09893e-95 1.08549e-95 1.08262e-95 1.08776e-95 1.09463e-95 1.09863e-95 1.09919e-95 1.09848e-95 1.0997e-95 1.10704e-95 1.12587e-95 1.16114e-95 1.21382e-95 1.27786e-95 1.34018e-95 1.38439e-95 1.39703e-95 1.37341e-95 1.31974e-95 1.24973e-95 1.17758e-95 1.11192e-95 1.05471e-95 1.00491e-95 9.62699e-96 9.306e-96 9.11412e-96 9.05543e-96 9.10343e-96 9.21841e-96 9.36977e-96 9.53621e-96 9.6779e-96 9.71085e-96 9.5229e-96 9.03433e-96 8.26007e-96 7.32278e-96 6.40627e-96 5.68487e-96 5.27389e-96 5.21869e-96 5.50941e-96 6.09935e-96 6.91414e-96 7.85156e-96 8.78246e-96 9.56745e-96 1.00935e-95 1.03112e-95 1.02439e-95 9.96072e-96 9.53929e-96 9.04774e-96 8.54935e-96 8.10949e-96 7.78974e-96 7.63302e-96 7.65208e-96 7.82682e-96 8.11089e-96 8.44872e-96 8.80192e-96 9.171e-96 9.58808e-96 1.00699e-95 1.0559e-95 1.09094e-95 1.09469e-95 1.0569e-95 9.80702e-96 8.80336e-96 7.72831e-96 6.70162e-96 5.76473e-96 4.90274e-96 4.08556e-96 3.29856e-96 2.55194e-96 1.87346e-96 1.29434e-96 8.36007e-97 5.02421e-97 2.80136e-97 1.44747e-97 6.9324e-98 3.08134e-98 1.27359e-98 4.90669e-99 1.76667e-99 5.96077e-100 1.88974e-100 5.6441e-101 1.59213e-101 4.252e-102 1.07752e-102 2.59657e-103 5.96198e-104 1.3068e-104 2.73918e-105 5.49972e-106 1.05935e-106 1.96039e-107 3.49013e-108 5.98536e-109 9.89939e-110 1.58083e-110 2.43997e-111 3.64368e-112 5.26944e-113 7.38662e-114 1.00451e-114 1.32628e-115 1.70148e-116 2.12245e-117 2.57614e-118 3.04445e-119 3.50532e-120 3.93444e-121 4.30749e-122 4.60244e-123 4.80176e-124 4.89415e-125 4.8756e-126 4.74954e-127 4.52624e-128 4.22155e-129 3.85504e-130 3.4481e-131 3.02196e-132 2.59604e-133 2.18667e-134 1.79511e-135 0 
0 2.90024e-189 6.69184e-188 1.52425e-186 3.43327e-185 7.64644e-184 1.6837e-182 3.66502e-181 7.88581e-180 1.67698e-178 3.52425e-177 7.3184e-176 1.50149e-174 3.04321e-173 6.09243e-172 1.2046e-170 2.35196e-169 4.53416e-168 8.62941e-167 1.62115e-165 3.00579e-164 5.49951e-163 9.92783e-162 1.768e-160 3.10554e-159 5.37958e-158 9.18849e-157 1.54721e-155 2.56796e-154 4.2003e-153 6.76933e-152 1.07473e-150 1.68059e-149 2.58784e-148 3.9232e-147 5.85433e-146 8.59707e-145 1.24212e-143 1.76527e-142 2.46713e-141 3.38997e-140 4.57838e-139 6.0761e-138 7.92166e-137 1.01429e-135 1.27507e-134 1.57327e-133 1.90472e-132 2.26193e-131 2.63389e-130 3.00633e-129 3.36232e-128 3.68335e-127 3.95071e-126 4.14727e-125 4.25912e-124 4.27717e-123 4.19829e-122 4.02589e-121 3.7697e-120 3.44494e-119 3.07078e-118 2.66847e-117 2.25924e-116 1.86242e-115 1.4939e-114 1.16518e-113 8.83048e-113 6.49766e-112 4.63837e-111 3.20951e-110 2.15075e-109 1.39446e-108 8.73877e-108 5.28765e-107 3.08569e-106 1.73459e-105 9.38081e-105 4.8741e-104 2.42955e-103 1.16001e-102 5.29644e-102 2.30845e-101 9.58616e-101 3.78509e-100 1.41798e-99 5.02824e-99 1.6836e-98 5.30876e-98 1.57207e-97 4.35925e-97 1.12851e-96 2.71917e-96 6.08002e-96 1.25807e-95 2.40329e-95 4.23114e-95 6.86017e-95 1.02484e-94 1.4134e-94 1.80556e-94 2.14589e-94 2.3847e-94 2.49157e-94 2.46369e-94 2.32694e-94 2.12828e-94 1.92106e-94 1.74897e-94 1.63631e-94 1.58752e-94 1.59359e-94 1.64057e-94 1.71674e-94 1.81608e-94 1.93611e-94 2.07129e-94 2.20693e-94 2.32002e-94 2.38872e-94 2.40483e-94 2.38012e-94 2.34071e-94 2.31223e-94 2.30617e-94 2.31711e-94 2.33172e-94 2.34025e-94 2.34147e-94 2.33997e-94 2.34259e-94 2.35824e-94 2.39836e-94 2.47345e-94 2.58554e-94 2.72178e-94 2.85433e-94 2.94836e-94 2.97527e-94 2.92507e-94 2.81093e-94 2.662e-94 2.50844e-94 2.36861e-94 2.24674e-94 2.14066e-94 2.05076e-94 1.98242e-94 1.94156e-94 1.92905e-94 1.93925e-94 1.96372e-94 1.99592e-94 2.03128e-94 2.06129e-94 2.06808e-94 2.02782e-94 1.92362e-94 1.75867e-94 1.55909e-94 1.36396e-94 1.21038e-94 1.12289e-94 1.11114e-94 1.17305e-94 1.29866e-94 1.47215e-94 1.67176e-94 1.86998e-94 2.03716e-94 2.14923e-94 2.19569e-94 2.18147e-94 2.12127e-94 2.03158e-94 1.92693e-94 1.82081e-94 1.72714e-94 1.65903e-94 1.62562e-94 1.62963e-94 1.66679e-94 1.72724e-94 1.79917e-94 1.87442e-94 1.95308e-94 2.04196e-94 2.14453e-94 2.24857e-94 2.32303e-94 2.33092e-94 2.25047e-94 2.08833e-94 1.87476e-94 1.64595e-94 1.42738e-94 1.22787e-94 1.04429e-94 8.70242e-95 7.02631e-95 5.43625e-95 3.99128e-95 2.75786e-95 1.78162e-95 1.07096e-95 5.97318e-96 3.08744e-96 1.47928e-96 6.57819e-97 2.72028e-97 1.0486e-97 3.77768e-98 1.27537e-98 4.04585e-99 1.20917e-99 3.41323e-100 9.12183e-101 2.31325e-101 5.57845e-102 1.28181e-102 2.8117e-103 5.89808e-104 1.18513e-104 2.28455e-105 4.23103e-106 7.5386e-107 1.29386e-107 2.14169e-108 3.42285e-109 5.28741e-110 7.90236e-111 1.14378e-111 1.60467e-112 2.18402e-113 2.88606e-114 3.70564e-115 4.62642e-116 5.62016e-117 6.64754e-118 7.66043e-119 8.60567e-120 9.42982e-121 1.00843e-121 1.05302e-122 1.07422e-123 1.07109e-124 1.04432e-125 9.96104e-127 9.29874e-128 8.499e-129 7.60863e-130 6.67426e-131 5.73872e-132 4.83812e-133 3.97532e-134 0 
0 6.61191e-188 1.52412e-186 3.46824e-185 7.80443e-184 1.7365e-182 3.81997e-181 8.30717e-180 1.78569e-178 3.79375e-177 7.96513e-176 1.65244e-174 3.38701e-173 6.85823e-172 1.37169e-170 2.70954e-169 5.28531e-168 1.01795e-166 1.93552e-165 3.63269e-164 6.72905e-163 1.23001e-161 2.21836e-160 3.94685e-159 6.92624e-158 1.19868e-156 2.04546e-155 3.44106e-154 5.70591e-153 9.32423e-152 1.50133e-150 2.38137e-149 3.72036e-148 5.72349e-147 8.66888e-146 1.29241e-144 1.89615e-143 2.73707e-142 3.88631e-141 5.42652e-140 7.44954e-139 1.0052e-137 1.33281e-136 1.73607e-135 2.22085e-134 2.78933e-133 3.43857e-132 4.15926e-131 4.93485e-130 5.74122e-129 6.54722e-128 7.316e-127 8.00739e-126 8.58104e-125 9.00002e-124 9.23462e-123 9.26562e-122 9.08681e-121 8.70606e-120 8.14497e-119 7.43683e-118 6.6234e-117 5.7507e-116 4.86462e-115 4.00675e-114 3.2112e-113 2.5025e-112 1.89495e-111 1.39318e-110 9.93695e-110 6.87016e-109 4.60002e-108 2.98002e-107 1.866e-106 1.12816e-105 6.57828e-105 3.69497e-104 1.9967e-103 1.03664e-102 5.16325e-102 2.46336e-101 1.12388e-100 4.89479e-100 2.03114e-99 8.01419e-99 3.00018e-98 1.06315e-97 3.55734e-97 1.12098e-96 3.31747e-96 9.19364e-96 2.37869e-95 5.72844e-95 1.28025e-94 2.64791e-94 5.05632e-94 8.89907e-94 1.44247e-93 2.15447e-93 2.9709e-93 3.79487e-93 4.50998e-93 5.01182e-93 5.23649e-93 5.1781e-93 4.89096e-93 4.47373e-93 4.03846e-93 3.67696e-93 3.44031e-93 3.33784e-93 3.35061e-93 3.44929e-93 3.60929e-93 3.81791e-93 4.06999e-93 4.35388e-93 4.63875e-93 4.87635e-93 5.02085e-93 5.05503e-93 5.00358e-93 4.92121e-93 4.86168e-93 4.84904e-93 4.87202e-93 4.90268e-93 4.92064e-93 4.92325e-93 4.92014e-93 4.92571e-93 4.95865e-93 5.043e-93 5.20078e-93 5.43621e-93 5.72227e-93 6.00057e-93 6.19799e-93 6.25449e-93 6.14916e-93 5.90958e-93 5.59686e-93 5.27428e-93 4.98038e-93 4.72414e-93 4.50109e-93 4.3121e-93 4.16846e-93 4.0826e-93 4.05629e-93 4.07769e-93 4.12907e-93 4.19668e-93 4.27084e-93 4.33358e-93 4.34737e-93 4.26225e-93 4.04286e-93 3.69601e-93 3.27652e-93 2.86647e-93 2.54374e-93 2.35988e-93 2.33521e-93 2.46532e-93 2.72933e-93 3.09396e-93 3.51347e-93 3.93009e-93 4.28152e-93 4.51723e-93 4.61511e-93 4.58546e-93 4.4591e-93 4.2707e-93 4.05079e-93 3.82776e-93 3.63088e-93 3.48768e-93 3.41739e-93 3.4257e-93 3.50369e-93 3.63065e-93 3.78182e-93 3.94006e-93 4.10556e-93 4.29247e-93 4.50803e-93 4.72647e-93 4.88266e-93 4.89902e-93 4.72996e-93 4.38942e-93 3.94085e-93 3.46017e-93 3.00088e-93 2.58153e-93 2.19561e-93 1.82972e-93 1.47736e-93 1.1431e-93 8.39335e-94 5.80033e-94 3.74777e-94 2.25339e-94 1.25718e-94 6.50044e-95 3.11581e-95 1.3862e-95 5.73523e-96 2.21197e-96 7.97345e-97 2.69352e-97 8.55006e-98 2.55701e-98 7.22274e-99 1.93161e-99 4.90196e-100 1.18298e-100 2.72024e-101 5.97141e-102 1.25357e-102 2.5208e-103 4.86309e-104 9.01364e-105 1.60727e-105 2.7608e-106 4.57357e-107 7.31544e-108 1.13097e-108 1.6917e-109 2.45058e-110 3.44093e-111 4.6872e-112 6.1991e-113 7.96627e-114 9.9542e-115 1.21027e-115 1.43274e-116 1.65248e-117 1.85799e-118 2.03769e-119 2.18102e-120 2.27946e-121 2.3274e-122 2.32267e-123 2.26661e-124 2.16388e-125 2.0218e-126 1.84956e-127 1.65728e-128 1.45506e-129 1.25223e-130 1.05666e-131 8.68997e-133 0 
0 1.4906e-186 3.43269e-185 7.80377e-184 1.75435e-182 3.8997e-181 8.57036e-180 1.86198e-178 3.99862e-177 8.48706e-176 1.78019e-174 3.68964e-173 7.55544e-172 1.52841e-170 3.05402e-169 6.02695e-168 1.17452e-166 2.25997e-165 4.29304e-164 8.04981e-163 1.48971e-161 2.7205e-160 4.90187e-159 8.7131e-158 1.52761e-156 2.64126e-155 4.50293e-154 7.56816e-153 1.25377e-151 2.04693e-150 3.29278e-149 5.21811e-148 8.14459e-147 1.25183e-145 1.89429e-144 2.82152e-143 4.13579e-142 5.9645e-141 8.46112e-140 1.18036e-138 1.61893e-137 2.1825e-136 2.89121e-135 3.76257e-134 4.80889e-133 6.03441e-132 7.43228e-131 8.98196e-130 1.06473e-128 1.23761e-127 1.4101e-126 1.57427e-125 1.72153e-124 1.84323e-123 1.93153e-122 1.98013e-121 1.98504e-120 1.94504e-119 1.86192e-118 1.74041e-117 1.58773e-116 1.41284e-115 1.22564e-114 1.0359e-113 8.52497e-113 6.82653e-112 5.31545e-111 4.02161e-110 2.95424e-109 2.10538e-108 1.4544e-107 9.73018e-107 6.29834e-106 3.94062e-105 2.38054e-104 1.38698e-103 7.78437e-103 4.20324e-102 2.18052e-101 1.08523e-100 5.17363e-100 2.35865e-99 1.02649e-98 4.25641e-98 1.67823e-97 6.27818e-97 2.22323e-96 7.43406e-96 2.34109e-95 6.924e-95 1.9177e-94 4.95889e-94 1.19359e-93 2.66626e-93 5.51217e-93 1.05217e-92 1.85121e-92 2.99988e-92 4.47972e-92 6.17645e-92 7.8888e-92 9.37497e-92 1.0418e-91 1.08852e-91 1.07642e-91 1.01679e-91 9.30125e-92 8.39696e-92 7.64591e-92 7.15423e-92 6.94138e-92 6.96796e-92 7.17299e-92 7.50537e-92 7.93872e-92 8.4623e-92 9.05197e-92 9.64373e-92 1.01374e-91 1.0438e-91 1.05098e-91 1.04038e-91 1.02336e-91 1.01105e-91 1.00844e-91 1.01322e-91 1.01958e-91 1.02332e-91 1.02388e-91 1.02324e-91 1.02441e-91 1.03127e-91 1.04881e-91 1.08159e-91 1.1305e-91 1.18991e-91 1.2477e-91 1.28869e-91 1.30043e-91 1.27857e-91 1.22883e-91 1.16389e-91 1.09686e-91 1.03577e-91 9.82479e-92 9.36092e-92 8.96798e-92 8.66941e-92 8.49094e-92 8.43621e-92 8.48061e-92 8.58733e-92 8.72774e-92 8.88156e-92 9.01128e-92 9.03894e-92 8.86095e-92 8.40409e-92 7.68267e-92 6.81061e-92 5.95833e-92 5.28756e-92 4.90542e-92 4.85415e-92 5.12463e-92 5.67345e-92 6.43142e-92 7.30346e-92 8.16955e-92 8.90024e-92 9.39055e-92 9.5945e-92 9.53339e-92 9.2711e-92 8.87967e-92 8.42263e-92 7.95901e-92 7.5497e-92 7.25193e-92 7.10563e-92 7.1227e-92 7.28457e-92 7.54832e-92 7.86252e-92 8.19165e-92 8.536e-92 8.92481e-92 9.37284e-92 9.82645e-92 1.01505e-91 1.01841e-91 9.8327e-92 9.12528e-92 8.19342e-92 7.19469e-92 6.2401e-92 5.36833e-92 4.56591e-92 3.8051e-92 3.07245e-92 2.37743e-92 1.74582e-92 1.20663e-92 7.79779e-93 4.68962e-93 2.61712e-93 1.3537e-93 6.49122e-94 2.88919e-94 1.19596e-94 4.61509e-95 1.66454e-95 5.6264e-96 1.78711e-96 5.34808e-97 1.51168e-97 4.04556e-98 1.02739e-98 2.48116e-99 5.70958e-100 1.25429e-100 2.63512e-101 5.30301e-102 1.02384e-102 1.89916e-103 3.38919e-104 5.82624e-105 9.65959e-106 1.54631e-106 2.39256e-107 3.58173e-108 5.19275e-109 7.29737e-110 9.94872e-111 1.31689e-111 1.69372e-112 2.11818e-113 2.57757e-114 3.05399e-115 3.5254e-116 3.96727e-117 4.35477e-118 4.66513e-119 4.87995e-120 4.98696e-121 4.98119e-122 4.86526e-123 4.64885e-124 4.34747e-125 3.98065e-126 3.57e-127 3.1372e-128 2.7023e-129 2.28232e-130 1.87864e-131 0 
0 3.32272e-185 7.64449e-184 1.7362e-182 3.89936e-181 8.65941e-180 1.90125e-178 4.12665e-177 8.85354e-176 1.87736e-174 3.93406e-173 8.14599e-172 1.6665e-170 3.36801e-169 6.72345e-168 1.32558e-166 2.58082e-165 4.96123e-164 9.41544e-163 1.76381e-161 3.26105e-160 5.94973e-159 1.07103e-157 1.90198e-156 3.3315e-155 5.75483e-154 9.80193e-153 1.6459e-151 2.72413e-150 4.44333e-149 7.14111e-148 1.13061e-146 1.76307e-145 2.70735e-144 4.09305e-143 6.09095e-142 8.91996e-141 1.28523e-139 1.82154e-138 2.53882e-137 3.47896e-136 4.68578e-135 6.20174e-134 8.06354e-133 1.02966e-131 1.29091e-130 1.58852e-129 1.91802e-128 2.27161e-127 2.6381e-126 3.00311e-125 3.34979e-124 3.65988e-123 3.91517e-122 4.09911e-121 4.19859e-120 4.20533e-119 4.11699e-118 3.93764e-117 3.67749e-116 3.35197e-115 2.98021e-114 2.58311e-113 2.18137e-112 1.79364e-111 1.43508e-110 1.11648e-109 8.44006e-109 6.19484e-108 4.41118e-107 3.04475e-106 2.03531e-105 1.31638e-104 8.22945e-104 4.96745e-103 2.89188e-102 1.62178e-101 8.75006e-101 4.53576e-100 2.25569e-99 1.07454e-98 4.89514e-98 2.1288e-97 8.82084e-97 3.47543e-96 1.29924e-95 4.59771e-95 1.53637e-94 4.83515e-94 1.42916e-93 3.95591e-93 1.02237e-92 2.45954e-92 5.4915e-92 1.13481e-91 2.16532e-91 3.80847e-91 6.17001e-91 9.21186e-91 1.26992e-90 1.62185e-90 1.92731e-90 2.14172e-90 2.2378e-90 2.21301e-90 2.09054e-90 1.9125e-90 1.72671e-90 1.57239e-90 1.47137e-90 1.42764e-90 1.43311e-90 1.47524e-90 1.54353e-90 1.63255e-90 1.7401e-90 1.86123e-90 1.9828e-90 2.08426e-90 2.1461e-90 2.161e-90 2.13942e-90 2.10462e-90 2.07944e-90 2.07413e-90 2.08394e-90 2.09702e-90 2.10472e-90 2.10588e-90 2.1046e-90 2.10703e-90 2.12114e-90 2.15721e-90 2.2246e-90 2.32507e-90 2.44709e-90 2.56576e-90 2.64994e-90 2.67405e-90 2.62918e-90 2.52706e-90 2.39367e-90 2.25595e-90 2.13035e-90 2.02075e-90 1.92535e-90 1.84455e-90 1.78318e-90 1.74649e-90 1.73523e-90 1.74434e-90 1.76627e-90 1.79511e-90 1.82666e-90 1.85318e-90 1.85866e-90 1.82185e-90 1.72776e-90 1.57936e-90 1.40007e-90 1.22487e-90 1.087e-90 1.00845e-90 9.97911e-91 1.05352e-90 1.16635e-90 1.32217e-90 1.50145e-90 1.67951e-90 1.82976e-90 1.93063e-90 1.97266e-90 1.9602e-90 1.90636e-90 1.82594e-90 1.732e-90 1.63669e-90 1.55253e-90 1.4913e-90 1.46119e-90 1.46465e-90 1.49787e-90 1.55206e-90 1.61664e-90 1.68434e-90 1.7552e-90 1.83519e-90 1.92728e-90 2.02044e-90 2.08692e-90 2.09374e-90 2.02151e-90 1.87618e-90 1.68474e-90 1.47951e-90 1.2833e-90 1.10407e-90 9.39064e-91 7.8261e-91 6.31946e-91 4.89024e-91 3.59137e-91 2.48251e-91 1.6046e-91 9.65237e-92 5.38823e-92 2.78802e-92 1.33744e-92 5.95552e-93 2.46647e-93 9.5229e-94 3.43661e-94 1.16232e-94 3.69418e-95 1.10623e-95 3.12895e-96 8.37944e-97 2.1295e-97 5.14646e-98 1.18516e-98 2.60551e-99 5.478e-100 1.10325e-100 2.13169e-101 3.95723e-102 7.06753e-103 1.21592e-103 2.01755e-104 3.23232e-105 5.00535e-106 7.4993e-107 1.08814e-107 1.53043e-108 2.08822e-109 2.76645e-110 3.56109e-111 4.4573e-112 5.42861e-113 6.43752e-114 7.43759e-115 8.37703e-116 9.20319e-117 9.86767e-118 1.03311e-118 1.05668e-119 1.05639e-120 1.03271e-121 9.87646e-123 9.24434e-124 8.47186e-125 7.60466e-126 6.68869e-127 5.76662e-128 4.87476e-129 4.01612e-130 0 
0 7.3228e-184 1.68312e-182 3.81897e-181 8.56884e-180 1.90108e-178 4.16997e-177 9.04223e-176 1.93811e-174 4.10577e-173 8.59553e-172 1.77812e-170 3.63422e-169 7.3378e-168 1.46343e-166 2.88253e-165 5.6068e-164 1.0768e-162 2.04163e-161 3.82102e-160 7.05794e-159 1.2865e-157 2.3137e-156 4.10492e-155 7.18344e-154 1.23971e-152 2.10957e-151 3.53901e-150 5.85199e-149 9.53636e-148 1.53122e-146 2.42206e-145 3.77347e-144 5.78916e-143 8.7442e-142 1.30005e-140 1.90213e-139 2.73819e-138 3.87726e-137 5.39911e-136 7.39174e-135 9.94686e-134 1.3153e-132 1.70862e-131 2.17984e-130 2.73045e-129 3.35694e-128 4.04964e-127 4.79194e-126 5.56009e-125 6.32379e-124 7.04758e-123 7.69319e-122 8.22257e-121 8.60135e-120 8.80239e-119 8.80884e-118 8.61631e-117 8.23382e-116 7.68321e-115 6.9971e-114 6.21574e-113 5.38292e-112 4.54188e-111 3.73142e-110 2.98296e-109 2.31877e-108 1.75142e-107 1.28444e-106 9.13863e-106 6.30262e-105 4.20965e-104 2.72048e-103 1.69935e-102 1.02494e-101 5.9621e-101 3.34094e-100 1.80115e-99 9.32939e-99 4.63607e-98 2.20682e-97 1.00458e-96 4.36551e-96 1.80757e-95 7.11683e-95 2.65867e-94 9.40208e-94 3.13972e-93 9.8748e-93 2.91697e-92 8.06944e-92 2.08432e-91 5.01169e-91 1.11844e-90 2.31025e-90 4.40651e-90 7.74792e-90 1.2549e-89 1.8732e-89 2.58199e-89 3.29726e-89 3.91811e-89 4.35396e-89 4.54935e-89 4.49914e-89 4.25041e-89 3.88872e-89 3.51125e-89 3.19771e-89 2.99245e-89 2.90363e-89 2.91477e-89 3.00038e-89 3.13911e-89 3.31995e-89 3.53842e-89 3.78446e-89 4.03141e-89 4.23759e-89 4.36341e-89 4.39399e-89 4.35054e-89 4.28019e-89 4.22927e-89 4.21858e-89 4.23852e-89 4.26511e-89 4.28078e-89 4.2832e-89 4.28065e-89 4.28562e-89 4.31435e-89 4.38769e-89 4.52464e-89 4.72874e-89 4.97655e-89 5.21754e-89 5.38846e-89 5.43744e-89 5.34637e-89 5.13904e-89 4.86813e-89 4.58831e-89 4.33295e-89 4.11007e-89 3.91604e-89 3.75175e-89 3.62699e-89 3.55242e-89 3.52951e-89 3.54801e-89 3.59255e-89 3.65112e-89 3.71512e-89 3.76875e-89 3.77946e-89 3.70417e-89 3.51254e-89 3.21069e-89 2.84616e-89 2.49003e-89 2.20978e-89 2.05011e-89 2.0287e-89 2.14175e-89 2.37113e-89 2.68791e-89 3.05237e-89 3.41438e-89 3.7199e-89 3.92511e-89 4.01077e-89 3.98566e-89 3.87637e-89 3.71297e-89 3.52204e-89 3.32829e-89 3.1572e-89 3.03267e-89 2.97138e-89 2.97832e-89 3.04576e-89 3.15583e-89 3.28711e-89 3.4248e-89 3.56898e-89 3.73169e-89 3.91888e-89 4.10807e-89 4.24296e-89 4.25664e-89 4.10984e-89 3.81459e-89 3.42566e-89 3.00865e-89 2.60985e-89 2.24545e-89 1.90992e-89 1.59176e-89 1.28538e-89 9.94734e-90 7.30596e-90 5.05084e-90 3.26526e-90 1.96464e-90 1.09704e-90 5.67831e-91 2.72502e-91 1.21397e-91 5.03012e-92 1.94313e-92 7.01629e-93 2.37444e-93 7.55133e-94 2.26272e-94 6.40431e-95 1.71627e-95 4.36467e-96 1.05558e-96 2.43263e-97 5.35199e-98 1.12608e-98 2.26963e-99 4.3887e-100 8.15346e-101 1.45734e-101 2.50924e-102 4.16686e-103 6.6811e-104 1.03543e-104 1.55261e-105 2.25468e-106 3.17375e-107 4.33409e-108 5.74656e-109 7.40343e-110 9.27447e-111 1.13051e-111 1.34176e-112 1.55153e-113 1.74901e-114 1.92316e-115 2.0638e-116 2.16259e-117 2.21388e-118 2.21519e-119 2.16745e-120 2.07469e-121 1.94362e-122 1.78279e-123 1.60172e-124 1.41005e-125 1.21675e-126 1.02949e-127 8.48909e-129 0 
0 1.59539e-182 3.66341e-181 8.30422e-180 1.86148e-178 4.1259e-177 9.04139e-176 1.95867e-174 4.19421e-173 8.87669e-172 1.85659e-170 3.83699e-169 7.83478e-168 1.58041e-166 3.14894e-165 6.19662e-164 1.20416e-162 2.31045e-161 4.37653e-160 8.1832e-159 1.51013e-157 2.75003e-156 4.94116e-155 8.75832e-154 1.53124e-152 2.64014e-151 4.48847e-150 7.52283e-149 1.2428e-147 2.02339e-146 3.24588e-145 5.12956e-144 7.98429e-143 1.22381e-141 1.84679e-140 2.74322e-139 4.01001e-138 5.76729e-137 8.15904e-136 1.13512e-134 1.55265e-133 2.08747e-132 2.75784e-131 3.5793e-130 4.56234e-129 5.70964e-128 7.01342e-127 8.45308e-126 9.99364e-125 1.15854e-123 1.3165e-122 1.46589e-121 1.59876e-120 1.70728e-119 1.78437e-118 1.82448e-117 1.82423e-116 1.78282e-115 1.7022e-114 1.58701e-113 1.44405e-112 1.2817e-111 1.10902e-110 9.34955e-110 7.67472e-109 6.13016e-108 4.76123e-107 3.59327e-106 2.63302e-105 1.87181e-104 1.28987e-103 8.60831e-103 5.55861e-102 3.4694e-101 2.09085e-100 1.21529e-99 6.80471e-99 3.66567e-98 1.89724e-97 9.42082e-97 4.48104e-96 2.03833e-95 8.8513e-95 3.66232e-94 1.44092e-93 5.3792e-93 1.90101e-92 6.34406e-92 1.99402e-91 5.88663e-91 1.62752e-90 4.20153e-90 1.00972e-89 2.25231e-89 4.65036e-89 8.86666e-89 1.55852e-88 2.52363e-88 3.76633e-88 5.19075e-88 6.62817e-88 7.87587e-88 8.75191e-88 9.14482e-88 9.04426e-88 8.5448e-88 7.81831e-88 7.06003e-88 6.43013e-88 6.01779e-88 5.8394e-88 5.86184e-88 6.03384e-88 6.31251e-88 6.67573e-88 7.11451e-88 7.60867e-88 8.10471e-88 8.51898e-88 8.77208e-88 8.83412e-88 8.74762e-88 8.60704e-88 8.50522e-88 8.48394e-88 8.52402e-88 8.57744e-88 8.60901e-88 8.61398e-88 8.60896e-88 8.61904e-88 8.67688e-88 8.82434e-88 9.0995e-88 9.50945e-88 1.00071e-87 1.04909e-87 1.08341e-87 1.09325e-87 1.07497e-87 1.03335e-87 9.78947e-88 9.22729e-88 8.714e-88 8.26581e-88 7.87563e-88 7.54535e-88 7.29458e-88 7.14471e-88 7.09865e-88 7.13577e-88 7.22523e-88 7.34286e-88 7.47121e-88 7.57841e-88 7.59908e-88 7.44683e-88 7.06094e-88 6.45382e-88 5.72099e-88 5.0052e-88 4.44192e-88 4.12102e-88 4.078e-88 4.30525e-88 4.76633e-88 5.4031e-88 6.1357e-88 6.86341e-88 7.4777e-88 7.8905e-88 8.06311e-88 8.01308e-88 7.79376e-88 7.46551e-88 7.0818e-88 6.69238e-88 6.34845e-88 6.09804e-88 5.9747e-88 5.98845e-88 6.1238e-88 6.34487e-88 6.60871e-88 6.88561e-88 7.17568e-88 7.50294e-88 7.87914e-88 8.25903e-88 8.52963e-88 8.5568e-88 8.26175e-88 7.6687e-88 6.88745e-88 6.04962e-88 5.24815e-88 4.51562e-88 3.84101e-88 3.20126e-88 2.58518e-88 2.00076e-88 1.46962e-88 1.01612e-88 6.57017e-89 3.95405e-89 2.20853e-89 1.14353e-89 5.48998e-90 2.44682e-90 1.01434e-90 3.92043e-91 1.41639e-91 4.79614e-92 1.52624e-92 4.57623e-93 1.29609e-93 3.47572e-94 8.8453e-95 2.14073e-95 4.93698e-96 1.08698e-96 2.28875e-97 4.61649e-98 8.9336e-99 1.661e-99 2.97117e-100 5.1198e-101 8.50874e-102 1.36538e-102 2.11777e-103 3.17815e-104 4.61903e-105 6.50727e-106 8.89373e-107 1.1802e-107 1.52176e-108 1.90795e-109 2.32767e-110 2.76497e-111 3.19998e-112 3.61036e-113 3.97327e-114 4.26752e-115 4.47569e-116 4.58581e-117 4.59255e-118 4.49749e-119 4.30881e-120 4.04016e-121 3.70911e-122 3.33535e-123 2.93883e-124 2.53822e-125 2.1495e-126 1.77403e-127 0 
0 3.43567e-181 7.88161e-180 1.78489e-178 3.99716e-177 8.85108e-176 1.93775e-174 4.19381e-173 8.97185e-172 1.89701e-170 3.96387e-169 8.18433e-168 1.66958e-166 3.36463e-165 6.69763e-164 1.31675e-162 2.55636e-161 4.90033e-160 9.27362e-159 1.73235e-157 3.19388e-156 5.81079e-155 1.04309e-153 1.84717e-152 3.22646e-151 5.55783e-150 9.44003e-149 1.58072e-147 2.60899e-146 4.24374e-145 6.80147e-144 1.07387e-142 1.66997e-141 2.55732e-140 3.85562e-139 5.72191e-138 8.35659e-137 1.20077e-135 1.6972e-134 2.35909e-133 3.2239e-132 4.33049e-131 5.71603e-130 7.41199e-129 9.43919e-128 1.18023e-126 1.44844e-125 1.74422e-124 2.06027e-123 2.3863e-122 2.70928e-121 3.01405e-120 3.28439e-119 3.50424e-118 3.65927e-117 3.73829e-116 3.73453e-115 3.64659e-114 3.47871e-113 3.24051e-112 2.94608e-111 2.61263e-110 2.25873e-109 1.9026e-108 1.56046e-107 1.24537e-106 9.66461e-106 7.28778e-105 5.33582e-104 3.79011e-103 2.60965e-102 1.74021e-101 1.12279e-100 7.00228e-100 4.21661e-99 2.44895e-98 1.37015e-97 7.37522e-97 3.81427e-96 1.89255e-95 8.99524e-95 4.08872e-94 1.77421e-93 7.33572e-93 2.88418e-92 1.07597e-91 3.79994e-91 1.26729e-90 3.98074e-90 1.17446e-89 3.24523e-89 8.37317e-89 2.01124e-88 4.48419e-88 9.25463e-88 1.76389e-87 3.09947e-87 5.01754e-87 7.48689e-87 1.03171e-86 1.3173e-86 1.56521e-86 1.7393e-86 1.81742e-86 1.7975e-86 1.69835e-86 1.55408e-86 1.40348e-86 1.27837e-86 1.19648e-86 1.16106e-86 1.16552e-86 1.19969e-86 1.25503e-86 1.32716e-86 1.41429e-86 1.51241e-86 1.61091e-86 1.69321e-86 1.74354e-86 1.75599e-86 1.73896e-86 1.71119e-86 1.69107e-86 1.68688e-86 1.69485e-86 1.70546e-86 1.71175e-86 1.71276e-86 1.71178e-86 1.7138e-86 1.72531e-86 1.75462e-86 1.80928e-86 1.89069e-86 1.98948e-86 2.08553e-86 2.15364e-86 2.17317e-86 2.13691e-86 2.0543e-86 1.9463e-86 1.83463e-86 1.73263e-86 1.64353e-86 1.56595e-86 1.50031e-86 1.45048e-86 1.4207e-86 1.41154e-86 1.41891e-86 1.43667e-86 1.46003e-86 1.48548e-86 1.50666e-86 1.5106e-86 1.48016e-86 1.40333e-86 1.2826e-86 1.13694e-86 9.94702e-87 8.82775e-87 8.1901e-87 8.10462e-87 8.55625e-87 9.47257e-87 1.0738e-86 1.2194e-86 1.36403e-86 1.48613e-86 1.56823e-86 1.60263e-86 1.59277e-86 1.54926e-86 1.48407e-86 1.40783e-86 1.33045e-86 1.26209e-86 1.21232e-86 1.18777e-86 1.19046e-86 1.21732e-86 1.26122e-86 1.31364e-86 1.36869e-86 1.42639e-86 1.49146e-86 1.56621e-86 1.64163e-86 1.6953e-86 1.70062e-86 1.642e-86 1.52423e-86 1.36908e-86 1.20266e-86 1.04341e-86 8.97827e-87 7.63724e-87 6.36542e-87 5.14063e-87 3.97875e-87 2.92278e-87 2.02113e-87 1.30707e-87 7.86799e-88 4.39589e-88 2.27688e-88 1.09353e-88 4.87587e-89 2.02228e-89 7.82023e-90 2.82689e-90 9.57795e-91 3.04978e-91 9.1502e-92 2.59325e-92 6.95899e-93 1.77221e-93 4.29212e-94 9.90566e-95 2.18253e-95 4.59899e-96 9.28331e-97 1.79783e-97 3.34523e-98 5.98857e-99 1.03274e-99 1.7177e-100 2.75857e-101 4.28212e-102 6.43142e-103 9.3549e-104 1.319e-104 1.80422e-105 2.39619e-106 3.09225e-107 3.88027e-108 4.73785e-109 5.63273e-110 6.52448e-111 7.36751e-112 8.11505e-113 8.72354e-114 9.15698e-115 9.39044e-116 9.41242e-117 9.22566e-118 8.84637e-119 8.3021e-120 7.62855e-121 6.8659e-122 6.05503e-123 5.23428e-124 4.43662e-125 3.66486e-126 0 
0 7.31249e-180 1.67592e-178 3.79167e-177 8.48313e-176 1.87666e-174 4.1046e-173 8.87497e-172 1.89682e-170 4.00682e-169 8.36446e-168 1.7254e-166 3.51642e-165 7.07979e-164 1.40797e-162 2.76544e-161 5.36385e-160 1.02724e-158 1.94217e-157 3.62464e-156 6.67639e-155 1.21354e-153 2.17638e-152 3.85049e-151 6.7194e-150 1.1564e-148 1.96233e-147 3.28285e-146 5.41338e-145 8.7972e-144 1.40864e-142 2.22202e-141 3.45228e-140 5.28187e-139 7.95609e-138 1.17964e-136 1.72125e-135 2.47104e-134 3.48948e-133 4.84593e-132 6.61644e-131 8.8795e-130 1.171e-128 1.51707e-127 1.93027e-126 2.41137e-125 2.95673e-124 3.55734e-123 4.19821e-122 4.85828e-121 5.51096e-120 6.12553e-119 6.66909e-118 7.10931e-117 7.41737e-116 7.57096e-115 7.55682e-114 7.37252e-113 7.02706e-112 6.54028e-111 5.94098e-110 5.26407e-109 4.54717e-108 3.82699e-107 3.13617e-106 2.50082e-105 1.93913e-104 1.46103e-103 1.06882e-102 7.58581e-102 5.21889e-101 3.47733e-100 2.24179e-99 1.39698e-98 8.40561e-98 4.87803e-97 2.72706e-96 1.46679e-95 7.58006e-95 3.75821e-94 1.78493e-93 8.10733e-93 3.51545e-92 1.45248e-91 5.70669e-91 2.12749e-90 7.50849e-90 2.50248e-89 7.85573e-89 2.31633e-88 6.39672e-88 1.64955e-87 3.96021e-87 8.82544e-87 1.82066e-86 3.46883e-86 6.09346e-86 9.86186e-86 1.47125e-85 2.02715e-85 2.5881e-85 3.07505e-85 3.41704e-85 3.57058e-85 3.53161e-85 3.33701e-85 3.0538e-85 2.75814e-85 2.5125e-85 2.35172e-85 2.28219e-85 2.29098e-85 2.35808e-85 2.46672e-85 2.60831e-85 2.77933e-85 2.97193e-85 3.1653e-85 3.32691e-85 3.42587e-85 3.45054e-85 3.41743e-85 3.36318e-85 3.32386e-85 3.31572e-85 3.33138e-85 3.35223e-85 3.36461e-85 3.36664e-85 3.36477e-85 3.36878e-85 3.39142e-85 3.44901e-85 3.55634e-85 3.71614e-85 3.91002e-85 4.09848e-85 4.23214e-85 4.27047e-85 4.19935e-85 4.03727e-85 3.8253e-85 3.60604e-85 3.40565e-85 3.23054e-85 3.07809e-85 2.9491e-85 2.85122e-85 2.79273e-85 2.77474e-85 2.78919e-85 2.82407e-85 2.86991e-85 2.91979e-85 2.96118e-85 2.96857e-85 2.9084e-85 2.75717e-85 2.51984e-85 2.23365e-85 1.95422e-85 1.73436e-85 1.6091e-85 1.59231e-85 1.68104e-85 1.86106e-85 2.10967e-85 2.39571e-85 2.67986e-85 2.91982e-85 3.08123e-85 3.14897e-85 3.1298e-85 3.04445e-85 2.91647e-85 2.76674e-85 2.61473e-85 2.48044e-85 2.38261e-85 2.33434e-85 2.33954e-85 2.39221e-85 2.47838e-85 2.58134e-85 2.68954e-85 2.80297e-85 2.93089e-85 3.0777e-85 3.22571e-85 3.33094e-85 3.34128e-85 3.22613e-85 2.99492e-85 2.69034e-85 2.36356e-85 2.05078e-85 1.76474e-85 1.50122e-85 1.25127e-85 1.01055e-85 7.82201e-86 5.74655e-86 3.9743e-86 2.57064e-86 1.54776e-86 8.6498e-87 4.48171e-87 2.15329e-87 9.60534e-88 3.98574e-88 1.5421e-88 5.57752e-89 1.89085e-89 6.02445e-90 1.80864e-90 5.12921e-91 1.37735e-91 3.51003e-92 8.50695e-93 1.9647e-93 4.33201e-94 9.13509e-95 1.84535e-95 3.57647e-96 6.65988e-97 1.19316e-97 2.05925e-98 3.42775e-99 5.50923e-100 8.55884e-101 1.28651e-101 1.87284e-102 2.64278e-103 3.61796e-104 4.80903e-105 6.21115e-106 7.80051e-107 9.53253e-108 1.13426e-108 1.31495e-109 1.48612e-110 1.63831e-111 1.76267e-112 1.85185e-113 1.9007e-114 1.90681e-115 1.8706e-116 1.79527e-117 1.68629e-118 1.55085e-119 1.39703e-120 1.23313e-121 1.06693e-122 9.05144e-124 7.4835e-125 0 