# vtk DataFile Version 3.0
Gray-Scott Simulation Output
ASCII
DATASET STRUCTURED_POINTS
DIMENSIONS 256 256 1
SPACING 1.0 1.0 1.0
ORIGIN 0 0 0
POINT_DATA 65536
SCALARS u double
LOOKUP_TABLE default
0 0 0 0 0 0 0 0 0 0 0 0 0 0 0 0 0 0 0 0 0 0 0 0 0 0 0 0 0 0 0 0 0 0 0 0 0 0 0 0 0 0 0 0 0 0 0 0 0 0 0 0 0 0 0 0 0 0 0 0 0 0 0 0 0 0 0 0 0 0 0 0 0 0 0 0 0 0 0 0 0 0 0 0 0 0 0 0 0 0 0 0 0 0 0 0 0 0 0 0 0 0 0 0 0 0 0 0 0 0 0 0 0 0 0 0 0 0 0 0 0 0 0 0 0 0 0 0 0 0 0 0 0 0 0 0 0 0 0 0 0 0 0 0 0 0 0 0 0 0 0 0 0 0 0 0 0 0 0 0 0 0 0 0 0 0 0 0 0 0 0 0 0 0 0 0 0 0 0 0 0 0 0 0 0 0 0 0 0 0 0 0 0 0 0 0 0 0 0 0 0 0 0 0 0 0 0 0 0 0 0 0 0 0 0 0 0 0 0 0 0 0 0 0 0 0 0 0 0 0 0 0 0 0 0 0 0 0 0 0 0 0 0 0 0 0 0 0 0 0 0 0 0 0 0 0 
0 3.55755e-103 2.14096e-102 1.24181e-101 7.12759e-101 4.05088e-100 2.27955e-99 1.27e-98 7.0044e-98 3.82398e-97 2.06631e-96 1.10502e-95 5.84784e-95 3.06219e-94 1.58648e-93 8.1313e-93 4.12252e-92 2.06727e-91 1.02522e-90 5.02777e-90 2.43794e-89 1.16872e-88 5.53846e-88 2.59422e-87 1.20091e-86 5.4935e-86 2.48295e-85 1.10869e-84 4.89015e-84 2.13032e-83 9.16475e-83 3.89304e-82 1.63264e-81 6.75867e-81 2.76147e-80 1.11342e-79 4.42954e-79 1.73846e-78 6.72997e-78 2.5694e-77 9.67277e-77 3.59001e-76 1.31339e-75 4.73553e-75 1.68245e-74 5.88892e-74 2.03034e-73 6.89383e-73 2.30476e-72 7.5854e-72 2.45715e-71 7.83245e-71 2.45632e-70 7.57704e-70 2.29852e-69 6.85547e-69 2.00986e-68 5.79076e-68 1.63925e-67 4.55818e-67 1.24471e-66 3.33713e-66 8.78204e-66 2.26791e-65 5.74584e-65 1.4278e-64 3.47897e-64 8.30984e-64 1.94525e-63 4.46154e-63 1.00231e-62 2.20501e-62 4.74891e-62 1.001e-61 2.06451e-61 4.16511e-61 8.21766e-61 1.58515e-60 2.98872e-60 5.50663e-60 9.91221e-60 1.74277e-59 2.99229e-59 5.01619e-59 8.20866e-59 1.31107e-58 2.04351e-58 3.10792e-58 4.61178e-58 6.67649e-58 9.42971e-58 1.29936e-57 1.74691e-57 2.29179e-57 2.93444e-57 3.66807e-57 4.47779e-57 5.34077e-57 6.22747e-57 7.10403e-57 7.93556e-57 8.68987e-57 9.34113e-57 9.87272e-57 1.0279e-56 1.05655e-56 1.07478e-56 1.08488e-56 1.08955e-56 1.09156e-56 1.09341e-56 1.09708e-56 1.10389e-56 1.11445e-56 1.12873e-56 1.14613e-56 1.16574e-56 1.18647e-56 1.20725e-56 1.22715e-56 1.24551e-56 1.26198e-56 1.27649e-56 1.28925e-56 1.30063e-56 1.31116e-56 1.32138e-56 1.33178e-56 1.34276e-56 1.35456e-56 1.36718e-56 1.38038e-56 1.39365e-56 1.40626e-56 1.41726e-56 1.42562e-56 1.43033e-56 1.43054e-56 1.42567e-56 1.4155e-56 1.40026e-56 1.38057e-56 1.35737e-56 1.33186e-56 1.30529e-56 1.27883e-56 1.25342e-56 1.22968e-56 1.20783e-56 1.18769e-56 1.16871e-56 1.15011e-56 1.131e-56 1.11056e-56 1.08821e-56 1.06375e-56 1.0375e-56 1.01028e-56 9.834e-57 9.58491e-57 9.37335e-57 9.21607e-57 9.12633e-57 9.11186e-57 9.17349e-57 9.30475e-57 9.49251e-57 9.71851e-57 9.96166e-57 1.02006e-56 1.04161e-56 1.05936e-56 1.07241e-56 1.08054e-56 1.0841e-56 1.084e-56 1.08147e-56 1.07791e-56 1.07469e-56 1.07296e-56 1.07351e-56 1.07667e-56 1.08226e-56 1.0896e-56 1.09756e-56 1.10466e-56 1.10916e-56 1.10924e-56 1.10319e-56 1.08951e-56 1.06707e-56 1.03523e-56 9.93897e-57 9.43488e-57 8.84933e-57 8.1957e-57 7.49044e-57 6.7519e-57 5.99912e-57 5.25082e-57 4.52442e-57 3.83529e-57 3.19613e-57 2.61654e-57 2.10278e-57 1.65776e-57 1.28122e-57 9.7014e-58 7.19303e-58 5.2197e-58 3.70555e-58 2.57266e-58 1.74627e-58 1.15863e-58 7.51297e-59 4.76067e-59 2.94774e-59 1.7835e-59 1.05445e-59 6.09236e-60 3.44022e-60 1.89882e-60 1.02457e-60 5.40545e-61 2.7889e-61 1.40745e-61 6.94898e-62 3.35733e-62 1.58763e-62 7.35008e-63 3.33214e-63 1.47962e-63 6.43696e-64 2.74423e-64 1.14678e-64 4.69859e-65 1.88795e-65 7.4414e-66 2.87786e-66 1.0923e-66 4.06982e-67 1.48893e-67 5.34986e-68 1.88834e-68 6.5492e-69 2.23237e-69 7.48012e-70 2.46441e-70 7.98497e-71 2.54497e-71 7.98046e-72 2.46255e-72 7.47567e-73 2.22126e-73 6.03982e-74 0 
0 2.13931e-102 1.28732e-101 7.46609e-101 4.28486e-100 2.43501e-99 1.37012e-98 7.63262e-98 4.20924e-97 2.29779e-96 1.24152e-95 6.63886e-95 3.51307e-94 1.83946e-93 9.52932e-93 4.88379e-92 2.47589e-91 1.24148e-90 6.15649e-90 3.01902e-89 1.46383e-88 7.0171e-88 3.32518e-87 1.55745e-86 7.20945e-86 3.29781e-85 1.49049e-84 6.65519e-84 2.93536e-83 1.27872e-82 5.50104e-82 2.33673e-81 9.79956e-81 4.05673e-80 1.65751e-79 6.68311e-79 2.65877e-78 1.0435e-77 4.03971e-77 1.54234e-76 5.80645e-76 2.15511e-75 7.88469e-75 2.843e-74 1.01012e-73 3.53581e-73 1.21912e-72 4.13967e-72 1.38408e-71 4.55559e-71 1.47582e-70 4.70472e-70 1.47556e-69 4.55212e-69 1.38104e-68 4.11943e-68 1.20785e-67 3.48041e-67 9.8535e-67 2.74024e-66 7.48378e-66 2.00669e-65 5.28154e-65 1.36411e-64 3.45651e-64 8.59038e-64 2.09344e-63 5.0011e-63 1.17088e-62 2.68589e-62 6.03492e-62 1.32784e-61 2.8602e-61 6.0298e-61 1.2438e-60 2.50972e-60 4.95235e-60 9.55426e-60 1.80166e-59 3.31997e-59 5.97689e-59 1.051e-58 1.80475e-58 3.02578e-58 4.952e-58 7.91004e-58 1.23301e-57 1.87541e-57 2.78309e-57 4.02933e-57 5.69123e-57 7.84251e-57 1.05441e-56 1.38333e-56 1.77126e-56 2.2141e-56 2.70286e-56 3.22375e-56 3.75892e-56 4.28795e-56 4.78976e-56 5.24494e-56 5.6379e-56 5.95862e-56 6.20372e-56 6.37654e-56 6.48646e-56 6.54729e-56 6.57537e-56 6.58736e-56 6.59833e-56 6.62026e-56 6.66109e-56 6.7245e-56 6.81022e-56 6.9148e-56 7.03268e-56 7.1573e-56 7.28218e-56 7.40183e-56 7.51225e-56 7.61128e-56 7.69856e-56 7.77527e-56 7.84376e-56 7.90709e-56 7.96851e-56 8.03106e-56 8.09711e-56 8.16802e-56 8.24386e-56 8.32317e-56 8.40294e-56 8.47868e-56 8.54477e-56 8.595e-56 8.6233e-56 8.62453e-56 8.5952e-56 8.53409e-56 8.44247e-56 8.32408e-56 8.18467e-56 8.03135e-56 7.87164e-56 7.7126e-56 7.55992e-56 7.41729e-56 7.28602e-56 7.16498e-56 7.05095e-56 6.93918e-56 6.82431e-56 6.7014e-56 6.56694e-56 6.41981e-56 6.26184e-56 6.09802e-56 5.9362e-56 5.78625e-56 5.65888e-56 5.56418e-56 5.51014e-56 5.50141e-56 5.53849e-56 5.6175e-56 5.73052e-56 5.86657e-56 6.01296e-56 6.15679e-56 6.28656e-56 6.39343e-56 6.47206e-56 6.52099e-56 6.54249e-56 6.54189e-56 6.52668e-56 6.50528e-56 6.4859e-56 6.47547e-56 6.47874e-56 6.49769e-56 6.53129e-56 6.57544e-56 6.62335e-56 6.66602e-56 6.69307e-56 6.6936e-56 6.65719e-56 6.57484e-56 6.43978e-56 6.24814e-56 5.99925e-56 5.69567e-56 5.34294e-56 4.94909e-56 4.52402e-56 4.07874e-56 3.62472e-56 3.17324e-56 2.73482e-56 2.31874e-56 1.9327e-56 1.58252e-56 1.27201e-56 1.00297e-56 7.75271e-57 5.87106e-57 4.35351e-57 3.15945e-57 2.24309e-57 1.55739e-57 1.05716e-57 7.01421e-58 4.54826e-58 2.88199e-58 1.78443e-58 1.0796e-58 6.38254e-59 3.68741e-59 2.08203e-59 1.14907e-59 6.1996e-60 3.27046e-60 1.68719e-60 8.51361e-61 4.20292e-61 2.03035e-61 9.60006e-62 4.44387e-62 2.01436e-62 8.94354e-63 3.89031e-63 1.65832e-63 6.92905e-64 2.83861e-64 1.14045e-64 4.49457e-65 1.73801e-65 6.59589e-66 2.4573e-66 8.98896e-67 3.22947e-67 1.13979e-67 3.95266e-68 1.34718e-68 4.51366e-69 1.48695e-69 4.81749e-70 1.53531e-70 4.81403e-71 1.48538e-71 4.50893e-72 1.33967e-72 3.64251e-73 0 
0 1.23983e-101 7.45988e-101 4.32605e-100 2.48251e-99 1.41063e-98 7.9365e-98 4.42081e-97 2.43777e-96 1.33064e-95 7.189e-95 3.8439e-94 2.0339e-93 1.06488e-92 5.51621e-92 2.82687e-91 1.43302e-90 7.18507e-90 3.56287e-89 1.74706e-88 8.47053e-88 4.06028e-87 1.92395e-86 9.01105e-86 4.17106e-85 1.9079e-84 8.62278e-84 3.85006e-83 1.69809e-82 7.39718e-82 3.18222e-81 1.35173e-80 5.66874e-80 2.3467e-79 9.58824e-79 3.86604e-78 1.53807e-77 6.03668e-77 2.33704e-76 8.92294e-76 3.35934e-75 1.2469e-74 4.56212e-74 1.64506e-73 5.84522e-73 2.04618e-72 7.05558e-72 2.39598e-71 8.01144e-71 2.63713e-70 8.54393e-70 2.72396e-69 8.54413e-69 2.63614e-68 7.99851e-68 2.38612e-67 6.99711e-67 2.01647e-66 5.70963e-66 1.58805e-65 4.33769e-65 1.16327e-64 3.06214e-64 7.91006e-64 2.00464e-63 4.98287e-63 1.2145e-62 2.90184e-62 6.79508e-62 1.55899e-61 3.50347e-61 7.70989e-61 1.66101e-60 3.50229e-60 7.2256e-60 1.45821e-59 2.87792e-59 5.55308e-59 1.04732e-58 1.93021e-58 3.47545e-58 6.11221e-58 1.04972e-57 1.76014e-57 2.88101e-57 4.60245e-57 7.175e-57 1.09142e-56 1.61978e-56 2.34526e-56 3.31276e-56 4.5652e-56 6.13805e-56 8.05299e-56 1.03115e-55 1.28896e-55 1.5735e-55 1.87672e-55 2.18824e-55 2.49616e-55 2.78822e-55 3.05311e-55 3.28177e-55 3.46837e-55 3.61095e-55 3.71147e-55 3.77536e-55 3.8107e-55 3.82696e-55 3.83384e-55 3.84011e-55 3.85272e-55 3.8763e-55 3.91298e-55 3.96262e-55 4.0232e-55 4.09151e-55 4.16373e-55 4.23612e-55 4.30548e-55 4.36949e-55 4.42691e-55 4.47751e-55 4.52199e-55 4.56171e-55 4.59844e-55 4.63405e-55 4.67031e-55 4.70859e-55 4.74969e-55 4.79363e-55 4.83959e-55 4.8858e-55 4.92967e-55 4.96795e-55 4.99704e-55 5.01343e-55 5.01412e-55 4.99712e-55 4.96169e-55 4.90859e-55 4.83997e-55 4.75918e-55 4.67034e-55 4.5778e-55 4.48565e-55 4.3972e-55 4.31458e-55 4.23854e-55 4.16843e-55 4.10238e-55 4.03762e-55 3.97104e-55 3.89978e-55 3.82181e-55 3.73646e-55 3.6448e-55 3.54973e-55 3.45581e-55 3.36878e-55 3.29484e-55 3.23986e-55 3.20848e-55 3.2034e-55 3.22491e-55 3.27077e-55 3.33637e-55 3.41534e-55 3.50032e-55 3.58382e-55 3.65916e-55 3.72121e-55 3.76687e-55 3.79529e-55 3.80778e-55 3.80745e-55 3.79863e-55 3.78621e-55 3.77496e-55 3.76889e-55 3.77077e-55 3.78175e-55 3.80122e-55 3.82682e-55 3.8546e-55 3.87935e-55 3.89504e-55 3.89536e-55 3.87424e-55 3.82646e-55 3.74808e-55 3.63685e-55 3.49235e-55 3.31606e-55 3.11117e-55 2.88234e-55 2.63528e-55 2.37639e-55 2.11232e-55 1.84963e-55 1.59444e-55 1.35215e-55 1.12728e-55 9.23214e-56 7.4221e-56 5.85327e-56 4.5251e-56 3.42728e-56 2.54168e-56 1.84472e-56 1.30978e-56 9.09434e-57 6.17343e-57 4.09609e-57 2.65603e-57 1.68295e-57 1.04199e-57 6.30378e-58 3.72652e-58 2.15276e-58 1.21541e-58 6.7072e-59 3.61835e-59 1.90856e-59 9.84482e-60 4.9671e-60 2.45179e-60 1.18425e-60 5.5987e-61 2.59127e-61 1.17443e-61 5.2136e-62 2.26752e-62 9.66438e-63 4.03754e-63 1.65382e-63 6.64351e-64 2.61789e-64 1.01218e-64 3.84081e-65 1.43071e-65 5.23299e-66 1.87983e-66 6.6338e-67 2.30027e-67 7.83914e-68 2.6262e-68 8.65071e-69 2.80244e-69 8.93041e-70 2.79994e-70 8.63857e-71 2.62208e-71 7.79007e-72 2.11797e-72 0 
0 7.11008e-101 4.27762e-100 2.48038e-99 1.42323e-98 8.08637e-98 4.54914e-97 2.53374e-96 1.39706e-95 7.62512e-95 4.11925e-94 2.20235e-93 1.16523e-92 6.10029e-92 3.1598e-91 1.61918e-90 8.20756e-90 4.11498e-89 2.04039e-88 1.00046e-87 4.85042e-87 2.3249e-86 1.1016e-85 5.15929e-85 2.38807e-84 1.0923e-83 4.93656e-83 2.20412e-82 9.72122e-82 4.2347e-81 1.82172e-80 7.73824e-80 3.24518e-79 1.34342e-78 5.48908e-78 2.21327e-77 8.80547e-77 3.4561e-76 1.33804e-75 5.10889e-75 1.92349e-74 7.13985e-74 2.61244e-73 9.42079e-73 3.3476e-72 1.17195e-71 4.04137e-71 1.3725e-70 4.58965e-70 1.51091e-69 4.89562e-69 1.56097e-68 4.89677e-68 1.51099e-67 4.58514e-67 1.36801e-66 4.01211e-66 1.15639e-65 3.27478e-65 9.10966e-65 2.48863e-64 6.67497e-64 1.75737e-63 4.54034e-63 1.15084e-62 2.8611e-62 6.97471e-62 1.66678e-61 3.9037e-61 8.95781e-61 2.01343e-60 4.43164e-60 9.54921e-60 2.01385e-59 4.15553e-59 8.38783e-59 1.65571e-58 3.19531e-58 6.02741e-58 1.11104e-57 2.00079e-57 3.51929e-57 6.04493e-57 1.01374e-56 1.65949e-56 2.65138e-56 4.13381e-56 6.2887e-56 9.33389e-56 1.35155e-55 1.90922e-55 2.63116e-55 3.53782e-55 4.64167e-55 5.94356e-55 7.42964e-55 9.06969e-55 1.08174e-54 1.26127e-54 1.43872e-54 1.60701e-54 1.75964e-54 1.89137e-54 1.99885e-54 2.08096e-54 2.13883e-54 2.1756e-54 2.19591e-54 2.20522e-54 2.20913e-54 2.21267e-54 2.21984e-54 2.23331e-54 2.25432e-54 2.28277e-54 2.31751e-54 2.3567e-54 2.39814e-54 2.43967e-54 2.47947e-54 2.51621e-54 2.54917e-54 2.57821e-54 2.60375e-54 2.62655e-54 2.64763e-54 2.66807e-54 2.68888e-54 2.71085e-54 2.73442e-54 2.75963e-54 2.78599e-54 2.81249e-54 2.83765e-54 2.8596e-54 2.87628e-54 2.88567e-54 2.88607e-54 2.8763e-54 2.85597e-54 2.8255e-54 2.78613e-54 2.73979e-54 2.68882e-54 2.63574e-54 2.58288e-54 2.53215e-54 2.48477e-54 2.44117e-54 2.40097e-54 2.36309e-54 2.32595e-54 2.28775e-54 2.24686e-54 2.20209e-54 2.15308e-54 2.10043e-54 2.04581e-54 1.99185e-54 1.94183e-54 1.89934e-54 1.86774e-54 1.8497e-54 1.84677e-54 1.85913e-54 1.88548e-54 1.92317e-54 1.96856e-54 2.01739e-54 2.06538e-54 2.10869e-54 2.14435e-54 2.1706e-54 2.18694e-54 2.19413e-54 2.19395e-54 2.18888e-54 2.18175e-54 2.17528e-54 2.17178e-54 2.17285e-54 2.17914e-54 2.19032e-54 2.20501e-54 2.22096e-54 2.23518e-54 2.24419e-54 2.24438e-54 2.23226e-54 2.20481e-54 2.15979e-54 2.09587e-54 2.01282e-54 1.91147e-54 1.79365e-54 1.66202e-54 1.51986e-54 1.37083e-54 1.21877e-54 1.06745e-54 9.20383e-55 7.80703e-55 6.51006e-55 5.33269e-55 4.28799e-55 3.38221e-55 2.61516e-55 1.98097e-55 1.46926e-55 1.06647e-55 7.57262e-56 5.25823e-56 3.5695e-56 2.3684e-56 1.53572e-56 9.7306e-57 6.02437e-57 3.64439e-57 2.15425e-57 1.24438e-57 7.02488e-58 3.87623e-58 2.09088e-58 1.10273e-58 5.68743e-59 2.86914e-59 1.41603e-59 6.83864e-60 3.23257e-60 1.49592e-60 6.77889e-61 3.00886e-61 1.30842e-61 5.57579e-62 2.32908e-62 9.53873e-63 3.8312e-63 1.50948e-63 5.83539e-64 2.21398e-64 8.24603e-65 3.01568e-65 1.08318e-65 3.82198e-66 1.32511e-66 4.51535e-67 1.51252e-67 4.98173e-68 1.61369e-68 5.14178e-69 1.61195e-69 4.97286e-70 1.5093e-70 4.48371e-71 1.21896e-71 0 
0 4.03737e-100 2.42876e-99 1.40818e-98 8.07925e-98 4.58997e-97 2.58194e-96 1.43794e-95 7.92786e-95 4.32665e-94 2.33716e-93 1.24946e-92 6.61024e-92 3.46039e-91 1.79228e-90 9.18364e-90 4.65486e-89 2.33366e-88 1.15707e-87 5.67314e-87 2.75033e-86 1.31823e-85 6.24592e-85 2.92514e-84 1.35392e-83 6.19265e-83 2.79865e-82 1.24955e-81 5.51104e-81 2.40067e-80 1.03274e-79 4.38684e-79 1.83972e-78 7.61608e-78 3.1119e-77 1.25479e-76 4.9923e-76 1.95951e-75 7.58658e-75 2.89683e-74 1.09071e-73 4.04884e-73 1.48154e-72 5.34298e-72 1.89872e-71 6.64765e-71 2.29258e-70 7.7866e-70 2.60408e-69 8.5735e-69 2.77826e-68 8.85947e-68 2.77955e-67 8.57783e-67 2.6033e-66 7.76819e-66 2.27858e-65 6.56838e-65 1.86038e-64 5.17593e-64 1.41422e-63 3.79382e-63 9.98994e-63 2.58145e-62 6.54438e-62 1.62729e-61 3.96768e-61 9.48354e-61 2.22152e-60 5.09868e-60 1.14624e-59 2.5234e-59 5.43842e-59 1.14714e-58 2.36754e-58 4.77972e-58 9.43661e-58 1.82148e-57 3.43653e-57 6.33566e-57 1.14114e-56 2.00752e-56 3.44875e-56 5.78439e-56 9.47036e-56 1.51327e-55 2.35963e-55 3.59003e-55 5.32892e-55 7.71687e-55 1.09017e-54 1.50248e-54 2.0203e-54 2.65074e-54 3.39427e-54 4.24297e-54 5.17957e-54 6.17756e-54 7.20273e-54 8.21587e-54 9.17663e-54 1.00478e-53 1.07997e-53 1.1413e-53 1.18815e-53 1.22115e-53 1.24211e-53 1.25366e-53 1.25894e-53 1.26113e-53 1.2631e-53 1.26714e-53 1.27477e-53 1.28668e-53 1.30283e-53 1.32257e-53 1.34484e-53 1.36839e-53 1.392e-53 1.41463e-53 1.43552e-53 1.45425e-53 1.47077e-53 1.48529e-53 1.49826e-53 1.51024e-53 1.52187e-53 1.5337e-53 1.54618e-53 1.55958e-53 1.57391e-53 1.58888e-53 1.60394e-53 1.61823e-53 1.6307e-53 1.64018e-53 1.64551e-53 1.64573e-53 1.64018e-53 1.62862e-53 1.6113e-53 1.58892e-53 1.56258e-53 1.53362e-53 1.50345e-53 1.47342e-53 1.4446e-53 1.41768e-53 1.39292e-53 1.37008e-53 1.34856e-53 1.32746e-53 1.30575e-53 1.2825e-53 1.25704e-53 1.22916e-53 1.1992e-53 1.16812e-53 1.1374e-53 1.10893e-53 1.08474e-53 1.06674e-53 1.05647e-53 1.0548e-53 1.06183e-53 1.07683e-53 1.09829e-53 1.12413e-53 1.15193e-53 1.17925e-53 1.20391e-53 1.22422e-53 1.23917e-53 1.24847e-53 1.25257e-53 1.25247e-53 1.24959e-53 1.24552e-53 1.24184e-53 1.23984e-53 1.24044e-53 1.24402e-53 1.25037e-53 1.25873e-53 1.2678e-53 1.27589e-53 1.28103e-53 1.28114e-53 1.27424e-53 1.25863e-53 1.23301e-53 1.19662e-53 1.14934e-53 1.09161e-53 1.02449e-53 9.49482e-54 8.68442e-54 7.83459e-54 6.96712e-54 6.10348e-54 5.26382e-54 4.46599e-54 3.72489e-54 3.05187e-54 2.45448e-54 1.93635e-54 1.49744e-54 1.13446e-54 8.41508e-55 6.10869e-55 4.33786e-55 3.01224e-55 2.04488e-55 1.35681e-55 8.79775e-56 5.57422e-56 3.45092e-56 2.08747e-56 1.23384e-56 7.12647e-57 4.02268e-57 2.21941e-57 1.19702e-57 6.3123e-58 3.25516e-58 1.6419e-58 8.10215e-59 3.9123e-59 1.84902e-59 8.55528e-60 3.87627e-60 1.72023e-60 7.47934e-61 3.18677e-61 1.33094e-61 5.45e-62 2.18863e-62 8.62177e-63 3.33253e-63 1.2642e-63 4.70784e-64 1.72147e-64 6.18236e-65 2.18115e-65 7.56126e-66 2.5762e-66 8.62854e-67 2.84162e-67 9.2036e-68 2.93229e-68 9.1918e-69 2.8354e-69 8.60488e-70 2.55606e-70 6.94854e-71 0 
0 2.26989e-99 1.36537e-98 7.91554e-98 4.54102e-97 2.5796e-96 1.45094e-95 8.07993e-95 4.45438e-94 2.4308e-93 1.31296e-92 7.01867e-92 3.71294e-91 1.94356e-90 1.00659e-89 5.15743e-89 2.61397e-88 1.31041e-87 6.49694e-87 3.18533e-86 1.54418e-85 7.40099e-85 3.50655e-84 1.64217e-83 7.60067e-83 3.47639e-82 1.57106e-81 7.01444e-81 3.09365e-80 1.34762e-79 5.79735e-79 2.4626e-78 1.03276e-77 4.27549e-77 1.74699e-76 7.04445e-76 2.80279e-75 1.10016e-74 4.25964e-74 1.62657e-73 6.12466e-73 2.27369e-72 8.32037e-72 3.00085e-71 1.06649e-70 3.73421e-70 1.28794e-69 4.37482e-69 1.46322e-68 4.81794e-68 1.56144e-67 4.97981e-67 1.56255e-66 4.82275e-66 1.46387e-65 4.36877e-65 1.28165e-64 3.69513e-64 1.04675e-63 2.91273e-63 7.9598e-63 2.13569e-62 5.62474e-62 1.45373e-61 3.68612e-61 9.16745e-61 2.23566e-60 5.34472e-60 1.25225e-59 2.87466e-59 6.46386e-59 1.42328e-58 3.06807e-58 6.47285e-58 1.33618e-57 2.69809e-57 5.32789e-57 1.0286e-56 1.94099e-56 3.57911e-56 6.44759e-56 1.13447e-55 1.94923e-55 3.26983e-55 5.35421e-55 8.55661e-55 1.33439e-54 2.0304e-54 3.01415e-54 4.36518e-54 6.16718e-54 8.50013e-54 1.14301e-53 1.49973e-53 1.92044e-53 2.40065e-53 2.93055e-53 3.49516e-53 4.07509e-53 4.64817e-53 5.19155e-53 5.68421e-53 6.10929e-53 6.45601e-53 6.72074e-53 6.90717e-53 7.02546e-53 7.0906e-53 7.12022e-53 7.13234e-53 7.1432e-53 7.16571e-53 7.20843e-53 7.27535e-53 7.36618e-53 7.47724e-53 7.60258e-53 7.73519e-53 7.86815e-53 7.99557e-53 8.1132e-53 8.21873e-53 8.31176e-53 8.39354e-53 8.46658e-53 8.5341e-53 8.59957e-53 8.6662e-53 8.7365e-53 8.81193e-53 8.89256e-53 8.97685e-53 9.0616e-53 9.14205e-53 9.21222e-53 9.26554e-53 9.29554e-53 9.29675e-53 9.26547e-53 9.20038e-53 9.10286e-53 8.97688e-53 8.82857e-53 8.66551e-53 8.49571e-53 8.32668e-53 8.16447e-53 8.013e-53 7.87364e-53 7.74516e-53 7.62409e-53 7.50532e-53 7.38312e-53 7.25217e-53 7.10874e-53 6.9516e-53 6.78274e-53 6.60749e-53 6.43429e-53 6.27373e-53 6.13729e-53 6.0358e-53 5.97783e-53 5.9684e-53 6.00804e-53 6.0926e-53 6.21363e-53 6.35936e-53 6.51617e-53 6.67028e-53 6.80935e-53 6.9239e-53 7.00822e-53 7.06073e-53 7.08385e-53 7.08329e-53 7.06704e-53 7.04412e-53 7.02332e-53 7.01204e-53 7.01539e-53 7.03551e-53 7.07128e-53 7.11837e-53 7.16951e-53 7.21512e-53 7.24409e-53 7.24475e-53 7.20593e-53 7.11795e-53 6.9735e-53 6.76834e-53 6.50163e-53 6.17599e-53 5.7972e-53 5.37374e-53 4.91609e-53 4.43599e-53 3.94574e-53 3.45745e-53 2.98252e-53 2.53106e-53 2.11153e-53 1.73039e-53 1.39195e-53 1.09831e-53 8.49496e-54 6.43665e-54 4.77508e-54 3.46665e-54 2.46189e-54 1.70963e-54 1.16062e-54 7.70091e-55 4.9933e-55 3.16362e-55 1.95845e-55 1.18459e-55 7.00111e-56 4.04335e-56 2.2821e-56 1.25893e-56 6.78909e-57 3.57961e-57 1.84568e-57 9.30815e-58 4.59249e-58 2.21722e-58 1.04773e-58 4.84692e-59 2.19569e-59 9.74249e-60 4.23518e-60 1.8042e-60 7.53387e-61 3.08448e-61 1.23847e-61 4.87796e-62 1.88515e-62 7.15019e-63 2.6623e-63 9.73354e-64 3.49511e-64 1.23291e-64 4.27345e-65 1.45581e-65 4.87539e-66 1.6054e-66 5.19906e-67 1.65624e-67 5.19124e-68 1.60118e-68 4.8588e-69 1.44317e-69 3.92289e-70 0 
0 1.26344e-98 7.59905e-98 4.40503e-97 2.52687e-96 1.4353e-95 8.07241e-95 4.49495e-94 2.47782e-93 1.35207e-92 7.30246e-92 3.9034e-91 2.06479e-90 1.08076e-89 5.59701e-89 2.86757e-88 1.45331e-87 7.28527e-87 3.61182e-86 1.77074e-85 8.58384e-85 4.11395e-84 1.94912e-83 9.12778e-83 4.22464e-82 1.93224e-81 8.73214e-81 3.89868e-80 1.71947e-79 7.49021e-79 3.22224e-78 1.36876e-77 5.7404e-77 2.3765e-76 9.71081e-76 3.91586e-75 1.55808e-74 6.11609e-74 2.36817e-73 9.0435e-73 3.40544e-72 1.2643e-71 4.62696e-71 1.6689e-70 5.93172e-70 2.07713e-69 7.16478e-69 2.43396e-68 8.14164e-68 2.6811e-67 8.69022e-67 2.77188e-66 8.69869e-66 2.6852e-65 8.15169e-65 2.43316e-64 7.1392e-64 2.05865e-63 5.83268e-63 1.62332e-62 4.43695e-62 1.1907e-61 3.13652e-61 8.108e-61 2.0563e-60 5.11509e-60 1.24767e-59 2.98339e-59 6.99145e-59 1.60529e-58 3.61039e-58 7.95145e-58 1.71441e-57 3.61774e-57 7.46962e-57 1.50863e-56 2.97968e-56 5.75375e-56 1.08596e-55 2.00285e-55 3.6087e-55 6.35071e-55 1.09136e-54 1.83104e-54 2.99871e-54 4.79292e-54 7.47541e-54 1.13759e-53 1.68893e-53 2.44617e-53 3.45623e-53 4.76395e-53 6.40635e-53 8.40599e-53 1.07643e-52 1.34559e-52 1.6426e-52 1.95904e-52 2.28404e-52 2.60515e-52 2.90959e-52 3.18557e-52 3.42365e-52 3.61779e-52 3.76597e-52 3.87028e-52 3.9364e-52 3.97274e-52 3.98918e-52 3.99581e-52 4.00171e-52 4.01412e-52 4.03782e-52 4.07505e-52 4.12564e-52 4.18754e-52 4.25742e-52 4.33137e-52 4.40553e-52 4.47661e-52 4.54223e-52 4.6011e-52 4.653e-52 4.69863e-52 4.73938e-52 4.77705e-52 4.81357e-52 4.85073e-52 4.88994e-52 4.93201e-52 4.97696e-52 5.02396e-52 5.0712e-52 5.11605e-52 5.15517e-52 5.18489e-52 5.2016e-52 5.20227e-52 5.18481e-52 5.14851e-52 5.09412e-52 5.02386e-52 4.94115e-52 4.85022e-52 4.75555e-52 4.66131e-52 4.57088e-52 4.48646e-52 4.40878e-52 4.33719e-52 4.26971e-52 4.2035e-52 4.13536e-52 4.06232e-52 3.98228e-52 3.89457e-52 3.80029e-52 3.70243e-52 3.60569e-52 3.516e-52 3.43977e-52 3.38307e-52 3.35068e-52 3.34539e-52 3.36753e-52 3.41477e-52 3.48238e-52 3.56379e-52 3.65139e-52 3.73749e-52 3.81519e-52 3.8792e-52 3.92631e-52 3.95565e-52 3.96857e-52 3.96826e-52 3.95918e-52 3.94637e-52 3.93474e-52 3.92842e-52 3.93027e-52 3.94148e-52 3.96144e-52 3.98773e-52 4.01628e-52 4.04176e-52 4.05795e-52 4.05835e-52 4.0367e-52 3.9876e-52 3.90694e-52 3.79236e-52 3.64336e-52 3.46137e-52 3.24963e-52 3.01283e-52 2.75683e-52 2.48817e-52 2.2137e-52 1.94023e-52 1.67412e-52 1.42106e-52 1.18579e-52 9.71961e-53 7.82017e-53 6.17163e-53 4.77426e-53 3.61797e-53 2.68433e-53 1.94897e-53 1.38418e-53 9.61272e-54 6.52597e-54 4.33008e-54 2.80758e-54 1.77873e-54 1.10106e-54 6.6594e-55 3.93546e-55 2.2726e-55 1.28252e-55 7.07419e-56 3.81439e-56 2.01087e-56 1.03666e-56 5.22725e-57 2.5786e-57 1.24472e-57 5.88074e-58 2.72002e-58 1.23197e-58 5.46536e-59 2.37542e-59 1.01175e-59 4.22406e-60 1.72909e-60 6.94135e-61 2.7335e-61 1.05622e-61 4.00545e-62 1.49114e-62 5.45084e-63 1.95698e-63 6.90222e-64 2.39207e-64 8.14777e-65 2.72824e-65 8.98255e-66 2.90861e-66 9.26471e-67 2.90355e-67 8.95468e-68 2.71702e-68 8.06934e-69 2.19327e-69 0 
0 6.96157e-98 4.18672e-97 2.42674e-96 1.39193e-95 7.90573e-95 4.44597e-94 2.47545e-93 1.36447e-92 7.44495e-92 4.02071e-91 2.14905e-90 1.13672e-89 5.94949e-89 3.08094e-88 1.57841e-87 7.99913e-87 4.00968e-86 1.9878e-85 9.74506e-85 4.72387e-84 2.26393e-83 1.07258e-82 5.02284e-82 2.32471e-81 1.06325e-80 4.80498e-80 2.1453e-79 9.46165e-79 4.12164e-78 1.77313e-77 7.53214e-77 3.15895e-76 1.30783e-75 5.34422e-75 2.15513e-74 8.57543e-74 3.36638e-73 1.30355e-72 4.97827e-72 1.87476e-71 6.96076e-71 2.54763e-70 9.18989e-70 3.26663e-69 1.144e-68 3.9465e-68 1.34082e-67 4.48562e-67 1.47733e-66 4.78909e-66 1.52777e-65 4.79512e-65 1.48043e-64 4.49497e-64 1.34191e-63 3.93798e-63 1.13575e-62 3.21846e-62 8.9591e-62 2.44922e-61 6.57402e-61 1.73207e-60 4.47837e-60 1.13602e-59 2.82647e-59 6.89581e-59 1.64927e-58 3.86586e-58 8.87834e-58 1.99724e-57 4.39967e-57 9.48825e-57 2.00266e-56 4.13587e-56 8.35499e-56 1.65055e-55 3.18789e-55 6.01806e-55 1.11014e-54 2.00063e-54 3.52144e-54 6.05263e-54 1.01566e-53 1.66361e-53 2.65939e-53 4.14834e-53 6.3136e-53 9.37451e-53 1.35789e-52 1.91873e-52 2.64487e-52 3.55688e-52 4.66726e-52 5.97675e-52 7.47131e-52 9.12038e-52 1.08772e-51 1.26813e-51 1.44637e-51 1.61532e-51 1.76845e-51 1.90053e-51 2.0082e-51 2.09035e-51 2.14815e-51 2.18475e-51 2.20482e-51 2.21385e-51 2.21742e-51 2.22059e-51 2.22735e-51 2.24037e-51 2.26088e-51 2.28878e-51 2.32295e-51 2.36154e-51 2.40239e-51 2.44335e-51 2.48262e-51 2.51888e-51 2.55141e-51 2.58008e-51 2.6053e-51 2.62781e-51 2.64863e-51 2.66881e-51 2.68934e-51 2.711e-51 2.73423e-51 2.75905e-51 2.785e-51 2.81109e-51 2.83585e-51 2.85745e-51 2.87386e-51 2.88309e-51 2.88345e-51 2.87381e-51 2.85375e-51 2.8237e-51 2.78489e-51 2.73921e-51 2.68899e-51 2.6367e-51 2.58466e-51 2.53474e-51 2.48813e-51 2.44525e-51 2.40574e-51 2.36849e-51 2.33194e-51 2.29431e-51 2.25396e-51 2.20972e-51 2.16123e-51 2.10909e-51 2.05497e-51 2.00145e-51 1.95182e-51 1.90965e-51 1.87827e-51 1.86034e-51 1.85741e-51 1.86965e-51 1.89579e-51 1.9332e-51 1.97824e-51 2.02672e-51 2.07437e-51 2.11737e-51 2.15279e-51 2.17886e-51 2.1951e-51 2.20225e-51 2.20207e-51 2.19705e-51 2.18995e-51 2.18351e-51 2.18e-51 2.18101e-51 2.18721e-51 2.19824e-51 2.21277e-51 2.22856e-51 2.24266e-51 2.25163e-51 2.25187e-51 2.23991e-51 2.21277e-51 2.16817e-51 2.10479e-51 2.02234e-51 1.92161e-51 1.80437e-51 1.67322e-51 1.53137e-51 1.38245e-51 1.23026e-51 1.07855e-51 9.30854e-52 7.90338e-52 6.59647e-52 5.40818e-52 4.35221e-52 3.43538e-52 2.65799e-52 2.01453e-52 1.49484e-52 1.08544e-52 7.70943e-53 5.35419e-53 3.63497e-53 2.41185e-53 1.56378e-53 9.90682e-54 6.13208e-54 3.70847e-54 2.19135e-54 1.26529e-54 7.13965e-55 3.93757e-55 2.12281e-55 1.11893e-55 5.76744e-56 2.90766e-56 1.43409e-56 6.92123e-57 3.26937e-57 1.5119e-57 6.84644e-58 3.03669e-58 1.31959e-58 5.61939e-59 2.34564e-59 9.59987e-60 3.85311e-60 1.51707e-60 5.86086e-61 2.22219e-61 8.2713e-62 3.02304e-62 1.08516e-62 3.82672e-63 1.326e-63 4.51588e-64 1.5119e-64 4.97712e-65 1.6114e-65 5.13209e-66 1.60819e-66 4.95915e-67 1.50453e-67 4.46787e-68 1.21427e-68 0 
0 3.79686e-97 2.28325e-96 1.32332e-95 7.58966e-95 4.31033e-94 2.42382e-93 1.34944e-92 7.43762e-92 4.05788e-91 2.19135e-90 1.17119e-89 6.19454e-89 3.24199e-88 1.67877e-87 8.60016e-87 4.35824e-86 2.18454e-85 1.08295e-84 5.30891e-84 2.57339e-83 1.23328e-82 5.84279e-82 2.73611e-81 1.26633e-80 5.79175e-80 2.61739e-79 1.1686e-78 5.15405e-78 2.24522e-77 9.65911e-77 4.10323e-76 1.72093e-75 7.12506e-75 2.91164e-74 1.17422e-73 4.67254e-73 1.83437e-72 7.10359e-72 2.71307e-71 1.02179e-70 3.79409e-70 1.38876e-69 5.01005e-69 1.78105e-68 6.23809e-68 2.15222e-67 7.31305e-67 2.44684e-66 8.05972e-66 2.6131e-65 8.33727e-65 2.61718e-64 8.0815e-64 2.45417e-63 7.32781e-63 2.15082e-62 6.20433e-62 1.7585e-61 4.89605e-61 1.33874e-60 3.59411e-60 9.4715e-60 2.44945e-59 6.21484e-59 1.54664e-58 3.77424e-58 9.02895e-58 2.11687e-57 4.86277e-57 1.09417e-56 2.41091e-56 5.20056e-56 1.09793e-55 2.26797e-55 4.58267e-55 9.05529e-55 1.74934e-54 3.30311e-54 6.09452e-54 1.09854e-53 1.934e-53 3.32477e-53 5.58012e-53 9.14155e-53 1.46156e-52 2.28019e-52 3.47079e-52 5.15405e-52 7.4663e-52 1.05509e-51 1.45449e-51 1.95612e-51 2.56687e-51 3.28712e-51 4.10912e-51 5.01605e-51 5.98213e-51 6.97414e-51 7.95404e-51 8.88277e-51 9.72436e-51 1.045e-50 1.10415e-50 1.14925e-50 1.18096e-50 1.20102e-50 1.21199e-50 1.21689e-50 1.2188e-50 1.22047e-50 1.22412e-50 1.2312e-50 1.24238e-50 1.25762e-50 1.2763e-50 1.29741e-50 1.31975e-50 1.34216e-50 1.36365e-50 1.38349e-50 1.40129e-50 1.41698e-50 1.43078e-50 1.4431e-50 1.45449e-50 1.46553e-50 1.47676e-50 1.48861e-50 1.50132e-50 1.51489e-50 1.52909e-50 1.54335e-50 1.55689e-50 1.56871e-50 1.57768e-50 1.58272e-50 1.58292e-50 1.57764e-50 1.56667e-50 1.55023e-50 1.529e-50 1.50401e-50 1.47654e-50 1.44794e-50 1.41948e-50 1.39218e-50 1.3667e-50 1.34326e-50 1.32166e-50 1.3013e-50 1.28131e-50 1.26074e-50 1.23866e-50 1.21445e-50 1.1879e-50 1.15934e-50 1.12969e-50 1.10037e-50 1.07318e-50 1.05006e-50 1.03286e-50 1.02303e-50 1.02142e-50 1.02813e-50 1.04245e-50 1.06296e-50 1.08764e-50 1.11421e-50 1.14033e-50 1.16389e-50 1.1833e-50 1.19759e-50 1.20649e-50 1.21041e-50 1.21031e-50 1.20756e-50 1.20366e-50 1.20013e-50 1.1982e-50 1.19875e-50 1.20213e-50 1.20817e-50 1.21613e-50 1.22479e-50 1.23251e-50 1.23744e-50 1.23758e-50 1.23104e-50 1.21619e-50 1.19176e-50 1.15704e-50 1.11185e-50 1.05664e-50 9.92346e-51 9.20401e-51 8.42562e-51 7.60808e-51 6.77219e-51 5.93858e-51 5.12669e-51 4.3539e-51 3.63482e-51 2.98073e-51 2.39923e-51 1.89418e-51 1.46579e-51 1.11111e-51 8.24575e-52 5.98798e-52 4.25329e-52 2.95403e-52 2.00553e-52 1.33068e-52 8.62753e-53 5.46542e-53 3.38272e-53 2.04557e-53 1.20861e-53 6.97769e-54 3.93676e-54 2.17083e-54 1.17015e-54 6.16678e-55 3.17806e-55 1.60193e-55 7.89941e-56 3.81168e-56 1.80016e-56 8.32302e-57 3.76822e-57 1.67103e-57 7.25994e-58 3.09097e-58 1.28997e-58 5.27831e-59 2.11814e-59 8.33805e-60 3.22059e-60 1.22088e-60 4.54344e-61 1.66026e-61 5.95867e-62 2.10091e-62 7.27866e-63 2.47845e-63 8.29645e-64 2.73076e-64 8.83989e-65 2.81499e-65 8.81985e-66 2.71941e-66 8.24928e-67 2.44944e-67 6.65643e-68 0 