# vtk DataFile Version 3.0
Gray-Scott Simulation Output
ASCII
DATASET STRUCTURED_POINTS
DIMENSIONS 256 256 1
SPACING 1.0 1.0 1.0
ORIGIN 0 0 0
POINT_DATA 65536
SCALARS u double
LOOKUP_TABLE default
0 0 0 0 0 0 0 0 0 0 0 0 0 0 0 0 0 0 0 0 0 0 0 0 0 0 0 0 0 0 0 0 0 0 0 0 0 0 0 0 0 0 0 0 0 0 0 0 0 0 0 0 0 0 0 0 0 0 0 0 0 0 0 0 0 0 0 0 0 0 0 0 0 0 0 0 0 0 0 0 0 0 0 0 0 0 0 0 0 0 0 0 0 0 0 0 0 0 0 0 0 0 0 0 0 0 0 0 0 0 0 0 0 0 0 0 0 0 0 0 0 0 0 0 0 0 0 0 0 0 0 0 0 0 0 0 0 0 0 0 0 0 0 0 0 0 0 0 0 0 0 0 0 0 0 0 0 0 0 0 0 0 0 0 0 0 0 0 0 0 0 0 0 0 0 0 0 0 0 0 0 0 0 0 0 0 0 0 0 0 0 0 0 0 0 0 0 0 0 0 0 0 0 0 0 0 0 0 0 0 0 0 0 0 0 0 0 0 0 0 0 0 0 0 0 0 0 0 0 0 0 0 0 0 0 0 0 0 0 0 0 0 0 0 0 0 0 0 0 0 0 0 0 0 0 0 
0 5.25379e-206 1.51258e-204 4.30059e-203 1.20883e-201 3.35881e-200 9.22453e-199 2.50376e-197 6.71559e-196 1.77979e-194 4.66013e-193 1.20537e-191 3.07951e-190 7.77018e-189 1.93603e-187 4.7629e-186 1.15678e-184 2.77325e-183 6.56188e-182 1.53217e-180 3.52991e-179 8.02292e-178 1.79865e-176 3.97686e-175 8.67046e-174 1.86373e-172 3.94899e-171 8.2467e-170 1.69702e-168 3.44053e-167 6.87094e-166 1.35137e-164 2.61707e-163 4.98941e-162 9.36236e-161 1.72874e-159 3.1404e-158 5.61116e-157 9.85892e-156 1.70298e-154 2.89123e-153 4.82322e-152 7.90417e-151 1.27209e-149 2.01002e-148 3.11726e-147 4.74355e-146 7.0803e-145 1.03628e-143 1.48671e-142 2.09002e-141 2.87798e-140 3.88035e-139 5.1207e-138 6.61121e-137 8.34719e-136 1.03018e-134 1.2422e-133 1.46273e-132 1.68118e-131 1.88497e-130 2.06061e-129 2.19498e-128 2.27689e-127 2.29854e-126 2.25665e-125 2.15312e-124 1.99499e-123 1.79363e-122 1.56346e-121 1.32011e-120 1.0787e-119 8.52165e-119 6.50161e-118 4.78523e-117 3.39352e-116 2.31582e-115 1.5187e-114 9.55689e-114 5.76172e-113 3.32234e-112 1.82894e-111 9.59322e-111 4.78423e-110 2.26329e-109 1.01313e-108 4.2796e-108 1.7009e-107 6.34015e-107 2.20882e-106 7.16539e-106 2.15574e-105 5.9895e-105 1.53007e-104 3.578e-104 7.62717e-104 1.47684e-103 2.59131e-103 4.11825e-103 5.94052e-103 7.81613e-103 9.44739e-103 1.05727e-102 1.10341e-102 1.08144e-102 1.00498e-102 8.99971e-103 7.95787e-103 7.14643e-103 6.66262e-103 6.49581e-103 6.57648e-103 6.82045e-103 7.16367e-103 7.58667e-103 8.10873e-103 8.73791e-103 9.4112e-103 9.98675e-103 1.03107e-102 1.03156e-102 1.00773e-102 9.78125e-103 9.60677e-103 9.61436e-103 9.72977e-103 9.83403e-103 9.86712e-103 9.8482e-103 9.81948e-103 9.80383e-103 9.82539e-103 9.94491e-103 1.02439e-102 1.07633e-102 1.14514e-102 1.21579e-102 1.26781e-102 1.28336e-102 1.25586e-102 1.19406e-102 1.11768e-102 1.04592e-102 9.87271e-103 9.38891e-103 8.949e-103 8.54467e-103 8.2255e-103 8.04725e-103 8.02121e-103 8.10364e-103 8.23047e-103 8.37085e-103 8.5408e-103 8.74333e-103 8.89341e-103 8.82443e-103 8.39372e-103 7.5988e-103 6.59981e-103 5.63333e-103 4.89904e-103 4.50243e-103 4.46529e-103 4.76164e-103 5.34315e-103 6.14643e-103 7.08468e-103 8.03236e-103 8.83e-103 9.33578e-103 9.49617e-103 9.36462e-103 9.045e-103 8.6206e-103 8.13857e-103 7.64352e-103 7.2008e-103 6.8817e-103 6.73447e-103 6.77106e-103 6.96897e-103 7.27462e-103 7.61365e-103 7.92489e-103 8.20851e-103 8.54007e-103 9.00452e-103 9.57732e-103 1.00668e-102 1.02059e-102 9.83437e-103 9.00833e-103 7.94686e-103 6.8805e-103 5.93567e-103 5.11993e-103 4.37796e-103 3.6565e-103 2.93832e-103 2.24179e-103 1.60447e-103 1.06567e-103 6.51198e-104 3.64058e-104 1.85747e-104 8.65015e-105 3.68405e-105 1.43936e-105 5.17788e-106 1.72176e-106 5.31289e-107 1.52713e-107 4.10362e-108 1.03436e-108 2.4533e-109 5.49117e-110 1.16301e-110 2.3366e-111 4.46336e-112 8.12344e-113 1.41147e-113 2.34556e-114 3.73422e-115 5.7045e-116 8.37404e-117 1.1829e-117 1.60995e-118 2.11372e-119 2.68007e-120 3.28524e-121 3.89709e-122 4.47793e-123 4.9884e-124 5.39209e-125 5.6599e-126 5.77357e-127 5.72761e-128 5.52956e-129 5.19849e-130 4.76211e-131 4.25317e-132 3.70562e-133 3.15119e-134 2.61683e-135 2.12314e-136 1.68379e-137 1.30586e-138 9.90811e-140 7.35789e-141 5.35004e-142 3.81037e-143 2.65916e-144 1.81901e-145 1.21496e-146 0 
0 1.51249e-204 4.34919e-203 1.23506e-201 3.46736e-200 9.62261e-199 2.63952e-197 7.15563e-196 1.91697e-194 5.07429e-193 1.32703e-191 3.42831e-190 8.74825e-189 2.2047e-187 5.48671e-186 1.34819e-184 3.27047e-183 7.83127e-182 1.85078e-180 4.31637e-179 9.93253e-178 2.25483e-176 5.04912e-175 1.11505e-173 2.42821e-172 5.21333e-171 1.10334e-169 2.30141e-168 4.73034e-167 9.57908e-166 1.91077e-164 3.75371e-163 7.261e-162 1.38269e-160 2.59155e-159 4.7797e-158 8.67272e-157 1.54783e-155 2.71644e-154 4.68685e-153 7.94798e-152 1.32439e-150 2.16789e-149 3.48503e-148 5.5004e-147 8.52068e-146 1.29513e-144 1.93094e-143 2.82295e-142 4.04544e-141 5.68071e-140 7.81363e-139 1.05233e-137 1.38715e-136 1.78893e-135 2.25616e-134 2.78138e-133 3.35012e-132 3.94055e-131 4.52407e-130 5.06692e-129 5.53299e-128 5.88737e-127 6.10045e-126 6.15178e-125 6.03316e-124 5.7502e-123 5.32217e-122 4.7799e-121 4.16205e-120 3.51053e-119 2.86553e-118 2.26137e-117 1.72351e-116 1.2672e-115 8.97725e-115 6.12e-114 4.00937e-113 2.52046e-112 1.51802e-111 8.74452e-111 4.80908e-110 2.52e-109 1.25553e-108 5.93391e-108 2.65372e-107 1.11993e-106 4.44706e-106 1.65618e-105 5.76495e-105 1.86858e-104 5.61722e-104 1.5595e-103 3.98103e-103 9.3034e-103 1.98203e-102 3.83583e-102 6.72768e-102 1.06886e-101 1.54149e-101 2.02792e-101 2.45101e-101 2.74291e-101 2.86264e-101 2.80571e-101 2.60745e-101 2.33514e-101 2.06491e-101 1.85441e-101 1.72889e-101 1.68563e-101 1.70657e-101 1.76984e-101 1.85884e-101 1.96853e-101 2.10391e-101 2.26705e-101 2.44162e-101 2.59088e-101 2.675e-101 2.67649e-101 2.61502e-101 2.53854e-101 2.49344e-101 2.49539e-101 2.52523e-101 2.5522e-101 2.56078e-101 2.5559e-101 2.54844e-101 2.54438e-101 2.55001e-101 2.58109e-101 2.65871e-101 2.79345e-101 2.97189e-101 3.15507e-101 3.28992e-101 3.33026e-101 3.25903e-101 3.09891e-101 2.90091e-101 2.71477e-101 2.56251e-101 2.43683e-101 2.32258e-101 2.21764e-101 2.13484e-101 2.08858e-101 2.0818e-101 2.10314e-101 2.13602e-101 2.17246e-101 2.21651e-101 2.26888e-101 2.30751e-101 2.28929e-101 2.17733e-101 1.97104e-101 1.7119e-101 1.46121e-101 1.27073e-101 1.16784e-101 1.15821e-101 1.23511e-101 1.38601e-101 1.59445e-101 1.83789e-101 2.08378e-101 2.29074e-101 2.42205e-101 2.46379e-101 2.42978e-101 2.34691e-101 2.23678e-101 2.11167e-101 1.98318e-101 1.86828e-101 1.78544e-101 1.74719e-101 1.75664e-101 1.80795e-101 1.88723e-101 1.97522e-101 2.05608e-101 2.12986e-101 2.21608e-101 2.33664e-101 2.48511e-101 2.61184e-101 2.64775e-101 2.55135e-101 2.33718e-101 2.06194e-101 1.78534e-101 1.54018e-101 1.32845e-101 1.13589e-101 9.48683e-102 7.62367e-102 5.81683e-102 4.16364e-102 2.76595e-102 1.69065e-102 9.45525e-103 4.82641e-103 2.24886e-103 9.58369e-104 3.7469e-104 1.34888e-104 4.48883e-105 1.38627e-105 3.98806e-106 1.07259e-106 2.70601e-107 6.42405e-108 1.43923e-108 3.05115e-109 6.13599e-110 1.17325e-110 2.13746e-111 3.7176e-112 6.1841e-113 9.85538e-114 1.50708e-114 2.21463e-115 3.13159e-116 4.26661e-117 5.60759e-118 7.1176e-119 8.73402e-120 1.03717e-120 1.19303e-121 1.33046e-122 1.43968e-123 1.51282e-124 1.54488e-125 1.53426e-126 1.48282e-127 1.39557e-128 1.27983e-129 1.14431e-130 9.98095e-132 8.49703e-133 7.06402e-134 5.73771e-135 4.55545e-136 3.53693e-137 2.68664e-138 1.99738e-139 1.45396e-140 1.0367e-141 7.24306e-143 4.96027e-144 3.31682e-145 0 
0 4.30007e-203 1.23499e-201 3.5028e-200 9.82192e-199 2.72247e-197 7.45877e-196 2.0196e-194 5.40388e-193 1.4287e-191 3.73185e-190 9.62944e-189 2.45426e-187 6.17771e-186 1.53557e-184 3.76867e-183 9.13123e-182 2.1839e-180 5.15512e-179 1.20084e-177 2.76002e-176 6.25823e-175 1.39971e-173 3.08749e-172 6.71559e-171 1.44013e-169 3.04429e-168 6.3425e-167 1.30212e-165 2.63374e-164 5.24748e-163 1.02967e-161 1.98943e-160 3.78402e-159 7.08406e-158 1.30503e-156 2.36524e-155 4.21639e-154 7.39125e-153 1.2738e-151 2.15764e-150 3.5912e-149 5.87173e-148 9.42842e-147 1.48639e-145 2.29996e-144 3.49193e-143 5.20034e-142 7.59409e-141 1.08705e-139 1.52474e-138 2.09489e-137 2.81821e-136 3.71075e-135 4.78022e-134 6.02202e-133 7.41568e-132 8.92217e-131 1.04831e-129 1.20222e-128 1.345e-127 1.46711e-126 1.55938e-125 1.61406e-124 1.62588e-123 1.59281e-122 1.51647e-121 1.40209e-120 1.25788e-119 1.09413e-118 9.21874e-118 7.51701e-117 5.92593e-116 4.51176e-115 3.31379e-114 2.34516e-113 1.59711e-112 1.04524e-111 6.56414e-111 3.94947e-110 2.27281e-109 1.24871e-108 6.53693e-108 3.25372e-107 1.53631e-106 6.8641e-106 2.89413e-105 1.14817e-104 4.27224e-104 1.48583e-103 4.81198e-103 1.44539e-102 4.00977e-102 1.02287e-101 2.38882e-101 5.08625e-101 9.83849e-101 1.72486e-100 2.73952e-100 3.95002e-100 5.19584e-100 6.27947e-100 7.0272e-100 7.334e-100 7.18833e-100 6.6807e-100 5.98333e-100 5.29117e-100 4.75192e-100 4.43037e-100 4.31957e-100 4.37323e-100 4.53529e-100 4.7632e-100 5.04408e-100 5.39073e-100 5.80845e-100 6.25541e-100 6.63768e-100 6.85339e-100 6.85781e-100 6.70121e-100 6.5061e-100 6.39099e-100 6.39595e-100 6.47212e-100 6.54104e-100 6.56301e-100 6.55054e-100 6.53146e-100 6.52104e-100 6.53556e-100 6.61534e-100 6.81434e-100 7.15951e-100 7.61645e-100 8.08543e-100 8.43066e-100 8.53398e-100 8.3518e-100 7.9421e-100 7.43529e-100 6.95851e-100 6.56815e-100 6.24574e-100 5.95272e-100 5.68375e-100 5.47161e-100 5.3531e-100 5.33562e-100 5.39018e-100 5.47439e-100 5.56776e-100 5.68054e-100 5.81426e-100 5.91244e-100 5.86489e-100 5.5775e-100 5.04883e-100 4.38502e-100 3.74289e-100 3.25493e-100 2.99132e-100 2.96666e-100 3.16373e-100 3.55041e-100 4.08452e-100 4.70831e-100 5.3383e-100 5.86863e-100 6.20525e-100 6.31254e-100 6.22573e-100 6.01355e-100 5.73134e-100 5.41066e-100 5.08135e-100 4.78686e-100 4.57451e-100 4.47637e-100 4.50045e-100 4.63183e-100 4.83491e-100 5.06041e-100 5.26785e-100 5.45736e-100 5.67876e-100 5.98782e-100 6.36785e-100 6.69188e-100 6.78339e-100 6.53639e-100 5.98804e-100 5.28327e-100 4.57479e-100 3.94656e-100 3.40392e-100 2.91038e-100 2.43068e-100 1.95335e-100 1.49049e-100 1.067e-100 7.08954e-101 4.33458e-101 2.42507e-101 1.23844e-101 5.77363e-102 2.462e-102 9.63214e-103 3.47011e-103 1.15569e-103 3.57198e-104 1.02847e-104 2.76851e-105 6.99089e-106 1.66116e-106 3.72512e-107 7.90474e-108 1.59121e-108 3.0455e-109 5.55388e-110 9.66935e-111 1.61009e-111 2.56855e-112 3.93184e-113 5.78376e-114 8.18702e-115 1.1166e-115 1.46908e-116 1.86665e-117 2.293e-118 2.72586e-119 3.13885e-120 3.50419e-121 3.79594e-122 3.99312e-123 4.08217e-124 4.05851e-125 3.92675e-126 3.69975e-127 3.39664e-128 3.04033e-129 2.65478e-130 2.26259e-131 1.8831e-132 1.53125e-133 1.21709e-134 9.46029e-136 7.19407e-137 5.35445e-138 3.90209e-139 2.78541e-140 1.94827e-141 1.33575e-142 8.94195e-144 0 
0 1.20861e-201 3.46694e-200 9.82131e-199 2.75057e-197 7.61486e-196 2.08373e-194 5.63525e-193 1.50602e-191 3.97688e-190 1.03753e-188 2.67397e-187 6.80697e-186 1.71136e-184 4.24877e-183 1.04151e-181 2.5205e-180 6.02106e-179 1.41959e-177 3.30289e-176 7.58238e-175 1.71724e-173 3.83624e-172 8.45202e-171 1.83623e-169 3.9331e-168 8.30441e-167 1.72812e-165 3.54369e-164 7.15933e-163 1.42477e-161 2.79245e-160 5.38903e-159 1.02384e-157 1.91452e-156 3.52287e-155 6.37747e-154 1.13557e-152 1.98835e-151 3.42276e-150 5.79106e-149 9.6277e-148 1.57237e-146 2.52193e-145 3.97131e-144 6.13801e-143 9.30855e-142 1.38471e-140 2.01982e-139 2.888e-138 4.04631e-137 5.55312e-136 7.46216e-135 9.81453e-134 1.26291e-132 1.58922e-131 1.95485e-130 2.34939e-129 2.75737e-128 3.15873e-127 3.53002e-126 3.84631e-125 4.08375e-124 4.22238e-123 4.24871e-122 4.1578e-121 3.95428e-120 3.65211e-119 3.273e-118 2.84389e-117 2.39363e-116 1.94973e-115 1.53543e-114 1.1678e-113 8.56831e-113 6.05753e-112 4.12109e-111 2.69433e-110 1.69034e-109 1.01601e-108 5.84105e-108 3.20596e-107 1.67667e-106 8.33748e-106 3.93296e-105 1.75557e-104 7.39523e-104 2.9312e-103 1.08972e-102 3.78663e-102 1.22531e-101 3.6776e-101 1.01946e-100 2.59875e-100 6.06519e-100 1.29064e-99 2.49528e-99 4.37287e-99 6.94306e-99 1.00088e-98 1.31639e-98 1.59084e-98 1.78024e-98 1.85798e-98 1.82113e-98 1.6926e-98 1.516e-98 1.34069e-98 1.2041e-98 1.12264e-98 1.09458e-98 1.10818e-98 1.14923e-98 1.20694e-98 1.27806e-98 1.36583e-98 1.47159e-98 1.58475e-98 1.68156e-98 1.73625e-98 1.73753e-98 1.69808e-98 1.64886e-98 1.61981e-98 1.62106e-98 1.64029e-98 1.6577e-98 1.66327e-98 1.66012e-98 1.65529e-98 1.65265e-98 1.65635e-98 1.67661e-98 1.72705e-98 1.81448e-98 1.93019e-98 2.04892e-98 2.13631e-98 2.16248e-98 2.1164e-98 2.01275e-98 1.88447e-98 1.76371e-98 1.66474e-98 1.58296e-98 1.50865e-98 1.44048e-98 1.38674e-98 1.35671e-98 1.35226e-98 1.36606e-98 1.38738e-98 1.41104e-98 1.43959e-98 1.47335e-98 1.49802e-98 1.48576e-98 1.4128e-98 1.27883e-98 1.11069e-98 9.4804e-99 8.24432e-99 7.5765e-99 7.51407e-99 8.01343e-99 8.99326e-99 1.03466e-98 1.19271e-98 1.35233e-98 1.4867e-98 1.57204e-98 1.59931e-98 1.5774e-98 1.52368e-98 1.45217e-98 1.37089e-98 1.28743e-98 1.2128e-98 1.15897e-98 1.13408e-98 1.14014e-98 1.1734e-98 1.22484e-98 1.28199e-98 1.33461e-98 1.38274e-98 1.43896e-98 1.5173e-98 1.61349e-98 1.69541e-98 1.71847e-98 1.65589e-98 1.51707e-98 1.33862e-98 1.15917e-98 9.99995e-99 8.62467e-99 7.37388e-99 6.15839e-99 4.94912e-99 3.77663e-99 2.70391e-99 1.7969e-99 1.09893e-99 6.15044e-100 3.14235e-100 1.46576e-100 6.25414e-101 2.44848e-101 8.82743e-102 2.94217e-102 9.10103e-103 2.62265e-103 7.06599e-104 1.78587e-104 4.24742e-105 9.5337e-106 2.02498e-106 4.08019e-107 7.8169e-108 1.42693e-108 2.48677e-109 4.14501e-110 6.61919e-111 1.01428e-111 1.49355e-112 2.11633e-113 2.8894e-114 3.80551e-115 4.84046e-116 5.95234e-117 7.08352e-118 8.16543e-119 9.12561e-120 9.89605e-121 1.04213e-121 1.06653e-122 1.0615e-123 1.02816e-124 9.69786e-126 8.91313e-127 7.98693e-128 6.9818e-129 5.95697e-130 4.96335e-131 4.04045e-132 3.21508e-133 2.50184e-134 1.90465e-135 1.4192e-136 1.03542e-137 7.39942e-139 5.18143e-140 3.55646e-141 2.38349e-142 0 
0 3.35799e-200 9.62081e-199 2.72212e-197 7.61437e-196 2.10546e-194 5.75441e-193 1.55435e-191 4.14898e-190 1.09429e-188 2.85147e-187 7.34011e-186 1.86629e-184 4.68648e-183 1.16212e-181 2.84533e-180 6.87762e-179 1.641e-177 3.8644e-176 8.98048e-175 2.05919e-173 4.6581e-172 1.03937e-170 2.28726e-169 4.96331e-168 1.06186e-166 2.23941e-165 4.6547e-164 9.5338e-163 1.92387e-161 3.82421e-160 7.4865e-159 1.44311e-157 2.73855e-156 5.11499e-155 9.40115e-154 1.69994e-152 3.02343e-151 5.28786e-150 9.09216e-149 1.53657e-147 2.55165e-146 4.16254e-145 6.66873e-144 1.04894e-142 1.6194e-141 2.45312e-140 3.64506e-139 5.31094e-138 7.58524e-137 1.06156e-135 1.45525e-134 1.95335e-133 2.56627e-132 3.29855e-131 4.14626e-130 5.09455e-129 6.11601e-128 7.17021e-127 8.20492e-126 9.15934e-125 9.96916e-124 1.05731e-122 1.09202e-121 1.09764e-120 1.073e-119 1.01939e-118 9.40487e-118 8.41965e-117 7.30803e-116 6.14451e-115 4.99974e-114 3.93323e-113 2.98837e-112 2.19035e-111 1.54692e-110 1.05133e-109 6.86651e-109 4.3035e-108 2.58412e-107 1.48413e-106 8.13793e-106 4.25187e-105 2.11227e-104 9.95455e-104 4.43929e-103 1.86831e-102 7.39863e-102 2.74813e-101 9.54126e-101 3.0849e-100 9.25153e-100 2.56267e-99 6.52803e-99 1.52258e-98 3.23811e-98 6.25731e-98 1.09612e-97 1.73984e-97 2.50754e-97 3.29759e-97 3.98486e-97 4.4592e-97 4.65397e-97 4.56179e-97 4.24004e-97 3.79787e-97 3.35886e-97 3.01674e-97 2.81273e-97 2.74248e-97 2.77656e-97 2.87934e-97 3.02382e-97 3.20188e-97 3.42162e-97 3.68637e-97 3.96965e-97 4.21203e-97 4.34915e-97 4.35273e-97 4.25449e-97 4.13174e-97 4.05925e-97 4.06235e-97 4.11036e-97 4.15386e-97 4.16781e-97 4.15997e-97 4.14787e-97 4.14126e-97 4.15058e-97 4.20142e-97 4.32784e-97 4.54682e-97 4.8365e-97 5.13369e-97 5.35242e-97 5.41796e-97 5.30274e-97 5.04343e-97 4.7224e-97 4.41998e-97 4.17193e-97 3.96681e-97 3.78048e-97 3.60966e-97 3.47504e-97 3.39982e-97 3.38863e-97 3.42311e-97 3.47649e-97 3.53578e-97 3.60722e-97 3.69151e-97 3.7528e-97 3.72153e-97 3.53842e-97 3.20272e-97 2.7816e-97 2.37427e-97 2.06468e-97 1.8974e-97 1.88177e-97 2.00688e-97 2.25237e-97 2.59143e-97 2.98737e-97 3.38722e-97 3.72387e-97 3.93776e-97 4.0063e-97 3.95163e-97 3.81716e-97 3.63801e-97 3.43434e-97 3.22521e-97 3.03819e-97 2.90327e-97 2.84082e-97 2.85595e-97 2.93919e-97 3.06801e-97 3.21119e-97 3.34318e-97 3.46406e-97 3.60519e-97 3.80152e-97 4.04223e-97 4.24703e-97 4.30448e-97 4.14773e-97 3.80022e-97 3.35348e-97 2.9041e-97 2.50532e-97 2.1607e-97 1.84727e-97 1.54275e-97 1.23984e-97 9.46172e-98 6.77496e-98 4.50318e-98 2.75475e-98 1.54232e-98 7.88352e-99 3.67926e-99 1.57084e-99 6.15392e-100 2.22026e-100 7.40583e-101 2.2927e-101 6.61245e-102 1.78309e-102 4.51062e-103 1.07377e-103 2.41241e-104 5.12887e-105 1.03442e-105 1.98369e-106 3.62468e-107 6.32318e-108 1.05502e-108 1.68648e-109 2.58687e-110 3.81314e-111 5.40875e-112 7.39219e-113 9.74611e-114 1.24097e-114 1.52764e-115 1.81988e-116 2.10008e-117 2.34954e-118 2.55064e-119 2.68893e-120 2.75485e-121 2.74485e-122 2.66153e-123 2.51316e-124 2.31233e-125 2.07433e-126 1.81528e-127 1.55053e-128 1.29334e-129 1.05402e-130 8.39643e-132 6.54103e-133 4.98527e-134 3.71881e-135 2.71621e-136 1.94328e-137 1.36231e-138 9.3613e-140 6.28087e-141 0 
0 9.22164e-199 2.63885e-197 7.45734e-196 2.08346e-194 5.75403e-193 1.57073e-191 4.23765e-190 1.12978e-188 2.97621e-187 7.74604e-186 1.99156e-184 5.05766e-183 1.26852e-181 3.14184e-180 7.68333e-179 1.85498e-177 4.42072e-176 1.03981e-174 2.41355e-173 5.52764e-172 1.24893e-170 2.7835e-169 6.1182e-168 1.32608e-166 2.83373e-165 5.9692e-164 1.23927e-162 2.53533e-161 5.11022e-160 1.01461e-158 1.98396e-157 3.81991e-156 7.24052e-155 1.35081e-153 2.47988e-152 4.47901e-151 7.95704e-150 1.39006e-148 2.3874e-147 4.03008e-146 6.6848e-145 1.08926e-143 1.74311e-142 2.73868e-141 4.22332e-140 6.3904e-139 9.48476e-138 1.3804e-136 1.96932e-135 2.753e-134 3.76977e-133 5.05447e-132 6.63309e-131 8.5164e-130 1.06932e-128 1.31244e-127 1.57386e-126 1.84312e-125 2.10679e-124 2.3493e-123 2.55423e-122 2.70604e-121 2.79186e-120 2.80322e-119 2.73736e-118 2.59781e-117 2.39418e-116 2.1411e-115 1.85645e-114 1.55924e-113 1.26742e-112 9.96023e-112 7.55968e-111 5.53522e-110 3.90519e-109 2.65138e-108 1.72993e-107 1.08312e-106 6.49732e-106 3.72791e-105 2.04212e-104 1.06592e-103 5.29028e-103 2.49081e-102 1.10975e-101 4.66621e-101 1.8462e-100 6.85145e-100 2.37674e-99 7.67821e-99 2.30086e-98 6.3686e-98 1.62117e-97 3.77876e-97 8.03175e-97 1.55128e-96 2.71635e-96 4.31025e-96 6.21085e-96 8.16669e-96 9.86819e-96 1.10427e-95 1.15251e-95 1.12972e-95 1.05009e-95 9.40634e-96 8.31946e-96 7.47234e-96 6.9672e-96 6.79331e-96 6.87776e-96 7.13222e-96 7.48982e-96 7.93052e-96 8.47439e-96 9.1296e-96 9.83065e-96 1.04306e-95 1.07705e-95 1.07803e-95 1.05385e-95 1.02358e-95 1.0057e-95 1.00646e-95 1.01831e-95 1.02906e-95 1.03251e-95 1.03058e-95 1.02758e-95 1.02595e-95 1.02827e-95 1.04089e-95 1.07221e-95 1.12643e-95 1.19813e-95 1.27167e-95 1.32579e-95 1.34202e-95 1.31353e-95 1.2494e-95 1.16997e-95 1.0951e-95 1.03363e-95 9.82773e-96 9.36583e-96 8.94264e-96 8.60928e-96 8.42301e-96 8.39515e-96 8.48036e-96 8.61251e-96 8.75938e-96 8.93614e-96 9.14416e-96 9.29466e-96 9.21586e-96 8.76147e-96 7.92986e-96 6.8871e-96 5.87857e-96 5.11197e-96 4.69773e-96 4.65904e-96 4.96895e-96 5.577e-96 6.4168e-96 7.39745e-96 8.38771e-96 9.22153e-96 9.75159e-96 9.92188e-96 9.78702e-96 9.45427e-96 9.01054e-96 8.50598e-96 7.9879e-96 7.52459e-96 7.19029e-96 7.03542e-96 7.07266e-96 7.27865e-96 7.59756e-96 7.95225e-96 8.27953e-96 8.57963e-96 8.92988e-96 9.41632e-96 1.00119e-95 1.0518e-95 1.06595e-95 1.02713e-95 9.41133e-96 8.30567e-96 7.19309e-96 6.20543e-96 5.35167e-96 4.57521e-96 3.82094e-96 3.07079e-96 2.34359e-96 1.67829e-96 1.11573e-96 6.82714e-97 3.82373e-97 1.95536e-97 9.13059e-98 3.9006e-98 1.52913e-98 5.52091e-99 1.84295e-99 5.71e-100 1.64822e-100 4.44837e-101 1.12629e-101 2.68361e-102 6.0348e-103 1.28423e-103 2.59261e-104 4.97662e-105 9.1024e-106 1.58947e-106 2.65468e-107 4.24785e-108 6.52238e-109 9.62406e-110 1.36653e-110 1.86959e-111 2.4675e-112 3.14516e-113 3.87578e-114 4.62212e-115 5.33944e-116 5.98007e-117 6.49887e-118 6.85858e-119 7.03433e-120 7.01636e-121 6.81079e-122 6.43813e-123 5.93013e-124 5.32558e-125 4.66564e-126 3.98958e-127 3.33149e-128 2.71804e-129 2.16763e-130 1.69052e-131 1.28988e-132 9.63273e-134 7.04363e-135 5.04493e-136 3.54068e-137 2.43577e-138 1.63609e-139 0 
0 2.50281e-197 7.15333e-196 2.01907e-194 5.63413e-193 1.55414e-191 4.23736e-190 1.14182e-188 3.0405e-187 8.00004e-186 2.07964e-184 5.34049e-183 1.35463e-181 3.39351e-180 8.39494e-179 2.05053e-177 4.94471e-176 1.17701e-174 2.76519e-173 6.41085e-172 1.46652e-170 3.30961e-169 7.36743e-168 1.61748e-166 3.50169e-165 7.47408e-164 1.57256e-162 3.26101e-161 6.66368e-160 1.34157e-158 2.66055e-157 5.19639e-156 9.99354e-155 1.89206e-153 3.52581e-152 6.46541e-151 1.16641e-149 2.06977e-148 3.61167e-147 6.19588e-146 1.04471e-144 1.73093e-143 2.81728e-142 4.5033e-141 7.06735e-140 1.08863e-138 1.64538e-137 2.43936e-136 3.54624e-135 5.05352e-134 7.05667e-133 9.65216e-132 1.29272e-130 1.69458e-129 2.17332e-128 2.72582e-127 3.34188e-126 4.00314e-125 4.68289e-124 5.34698e-123 5.95598e-122 6.46852e-121 6.84557e-120 7.05506e-119 7.07616e-118 6.90252e-117 6.54364e-116 6.02432e-115 5.38182e-114 4.66142e-113 3.91104e-112 3.17574e-111 2.49312e-110 1.89029e-109 1.38265e-108 9.74485e-108 6.60941e-107 4.30805e-106 2.6946e-105 1.6148e-104 9.25597e-104 5.06539e-103 2.64142e-102 1.30971e-101 6.16067e-101 2.74228e-100 1.152e-99 4.55384e-99 1.68851e-98 5.85241e-98 1.88911e-97 5.65648e-97 1.56451e-96 3.97979e-96 9.27048e-96 1.96931e-95 3.80174e-95 6.6543e-95 1.05557e-94 1.52071e-94 1.99934e-94 2.41576e-94 2.70324e-94 2.82137e-94 2.76565e-94 2.57083e-94 2.303e-94 2.03701e-94 1.82966e-94 1.70602e-94 1.66348e-94 1.68417e-94 1.74644e-94 1.83393e-94 1.94176e-94 2.07482e-94 2.23511e-94 2.40661e-94 2.55344e-94 2.6367e-94 2.63934e-94 2.58048e-94 2.50671e-94 2.4631e-94 2.46497e-94 2.49388e-94 2.52012e-94 2.52858e-94 2.52388e-94 2.51656e-94 2.51255e-94 2.51827e-94 2.54921e-94 2.62593e-94 2.75864e-94 2.93405e-94 3.11395e-94 3.24634e-94 3.28604e-94 3.21643e-94 3.05965e-94 2.86539e-94 2.68215e-94 2.53158e-94 2.40691e-94 2.29373e-94 2.19009e-94 2.10848e-94 2.06288e-94 2.05603e-94 2.07685e-94 2.10919e-94 2.14515e-94 2.18839e-94 2.23913e-94 2.27566e-94 2.25603e-94 2.14457e-94 1.94091e-94 1.68567e-94 1.43882e-94 1.25118e-94 1.14977e-94 1.14031e-94 1.21619e-94 1.36507e-94 1.57069e-94 1.81079e-94 2.05323e-94 2.25738e-94 2.38723e-94 2.42906e-94 2.39618e-94 2.31478e-94 2.20614e-94 2.08258e-94 1.95571e-94 1.84225e-94 1.76036e-94 1.7224e-94 1.73146e-94 1.78185e-94 1.8599e-94 1.94674e-94 2.02696e-94 2.10061e-94 2.18654e-94 2.30568e-94 2.45134e-94 2.57499e-94 2.60945e-94 2.51441e-94 2.30403e-94 2.03352e-94 1.76123e-94 1.51942e-94 1.31034e-94 1.12019e-94 9.35505e-95 7.51858e-95 5.73845e-95 4.10989e-95 2.73275e-95 1.67261e-95 9.37122e-96 4.79436e-96 2.23992e-96 9.57473e-97 3.75601e-97 1.35708e-97 4.53356e-98 1.40576e-98 4.06118e-99 1.09701e-99 2.78001e-100 6.62993e-101 1.49229e-101 3.17865e-102 6.42318e-103 1.23415e-103 2.2595e-104 3.94947e-105 6.60285e-106 1.05761e-106 1.62556e-107 2.40104e-108 3.41276e-109 4.67392e-110 6.17511e-111 7.87922e-112 9.71979e-113 1.16037e-113 1.34187e-114 1.50447e-115 1.63674e-116 1.72919e-117 1.77541e-118 1.77279e-119 1.72272e-120 1.63023e-121 1.50323e-122 1.35146e-123 1.18529e-124 1.01465e-125 8.4822e-127 6.92799e-128 5.53118e-129 4.31852e-130 3.29873e-131 2.46623e-132 1.80537e-133 1.29453e-134 9.09563e-136 6.26429e-137 4.21239e-138 0 
0 6.71256e-196 1.91622e-194 5.4021e-193 1.50561e-191 4.14814e-190 1.12963e-188 3.04029e-187 8.08615e-186 2.12505e-184 5.51752e-183 1.4152e-181 3.58541e-180 8.97124e-179 2.21668e-177 5.40801e-176 1.30256e-174 3.09686e-173 7.26699e-172 1.6828e-170 3.84496e-169 8.66703e-168 1.92708e-166 4.22586e-165 9.13787e-164 1.94813e-162 4.09413e-161 8.48009e-160 1.73084e-158 3.4806e-157 6.89459e-156 1.34505e-154 2.58377e-153 4.88617e-152 9.0948e-151 1.66583e-149 3.00185e-148 5.32063e-147 9.27372e-146 1.58911e-144 2.67642e-143 4.42938e-142 7.20117e-141 1.14978e-139 1.80239e-138 2.77321e-137 4.18679e-136 6.20019e-135 9.00351e-134 1.2816e-132 1.78762e-131 2.44241e-130 3.2675e-129 4.27854e-128 5.48122e-127 6.86711e-126 8.40991e-125 1.0063e-123 1.17588e-122 1.34118e-121 1.49231e-120 1.61898e-119 1.71151e-118 1.76199e-117 1.76537e-116 1.72021e-115 1.62904e-114 1.49817e-113 1.33697e-112 1.15679e-111 9.69561e-111 7.86456e-110 6.16768e-109 4.67153e-108 3.41348e-107 2.40336e-106 1.62842e-105 1.06034e-104 6.6256e-104 3.96661e-103 2.27141e-102 1.24183e-101 6.46949e-101 3.20475e-100 1.50605e-99 6.69762e-99 2.81104e-98 1.11021e-97 4.11296e-97 1.42436e-96 4.59396e-96 1.37448e-95 3.7988e-95 9.65669e-95 2.24799e-94 4.77266e-94 9.20906e-94 1.61125e-93 2.55514e-93 3.68031e-93 4.8381e-93 5.84545e-93 6.54097e-93 6.82686e-93 6.69224e-93 6.22113e-93 5.57336e-93 4.92991e-93 4.42828e-93 4.12916e-93 4.02628e-93 4.07638e-93 4.22702e-93 4.43861e-93 4.69935e-93 5.02112e-93 5.40872e-93 5.82343e-93 6.17855e-93 6.3802e-93 6.38716e-93 6.24557e-93 6.06786e-93 5.96276e-93 5.96727e-93 6.03699e-93 6.10034e-93 6.12082e-93 6.10952e-93 6.09181e-93 6.08212e-93 6.09604e-93 6.17105e-93 6.35678e-93 6.6778e-93 7.10202e-93 7.53698e-93 7.85704e-93 7.95308e-93 7.78494e-93 7.40607e-93 6.93648e-93 6.49322e-93 6.12864e-93 5.82662e-93 5.55246e-93 5.3016e-93 5.10416e-93 4.99381e-93 4.97716e-93 5.02744e-93 5.10565e-93 5.1927e-93 5.29722e-93 5.41958e-93 5.50721e-93 5.45888e-93 5.18861e-93 4.69563e-93 4.07808e-93 3.48089e-93 3.02688e-93 2.78151e-93 2.75863e-93 2.94229e-93 3.30261e-93 3.80024e-93 4.38126e-93 4.96794e-93 5.46204e-93 5.77646e-93 5.87802e-93 5.79878e-93 5.60198e-93 5.33908e-93 5.03998e-93 4.73289e-93 4.45825e-93 4.26e-93 4.16799e-93 4.1898e-93 4.31162e-93 4.50041e-93 4.7106e-93 4.90495e-93 5.0836e-93 5.29196e-93 5.58038e-93 5.93249e-93 6.23108e-93 6.31401e-93 6.08405e-93 5.57535e-93 4.92119e-93 4.26252e-93 3.67735e-93 3.17126e-93 2.71097e-93 2.264e-93 1.8196e-93 1.38887e-93 9.94824e-94 6.61598e-94 4.05044e-94 2.27017e-94 1.16194e-94 5.43142e-95 2.3231e-95 9.11916e-96 3.29719e-96 1.10232e-96 3.42078e-97 9.8907e-98 2.67399e-98 6.7823e-99 1.61894e-99 3.64733e-100 7.77627e-101 1.57286e-101 3.02501e-102 5.54365e-103 9.69949e-104 1.62321e-104 2.60258e-105 4.00423e-106 5.92048e-107 8.42384e-108 1.15487e-108 1.52738e-109 1.95091e-110 2.40916e-111 2.87914e-112 3.33301e-113 3.74086e-114 4.07408e-115 4.30881e-116 4.42873e-117 4.42696e-118 4.30658e-119 4.07979e-120 3.76607e-121 3.38954e-122 2.97602e-123 2.55039e-124 2.1344e-125 1.74523e-126 1.3949e-127 1.0903e-128 8.33756e-130 6.24036e-131 4.57328e-132 3.28292e-133 2.30923e-134 1.59219e-135 1.07186e-136 0 
0 1.77886e-194 5.07194e-193 1.42813e-191 3.97553e-190 1.09399e-188 2.97559e-187 7.9989e-186 2.12489e-184 5.57756e-183 1.44644e-181 3.70559e-180 9.37693e-179 2.34346e-177 5.78353e-176 1.40933e-174 3.39045e-173 8.05137e-172 1.88708e-170 4.36471e-169 9.96105e-168 2.24271e-166 4.98075e-165 1.09094e-163 2.35626e-162 5.01753e-161 1.05324e-159 2.17903e-158 4.44238e-157 8.92298e-156 1.76548e-154 3.44024e-153 6.60093e-152 1.24687e-150 2.31818e-149 4.24119e-148 7.63393e-147 1.35154e-145 2.35301e-144 4.02745e-143 6.77544e-142 1.12004e-140 1.81887e-139 2.90084e-138 4.54225e-137 6.98099e-136 1.05276e-134 1.55728e-133 2.25885e-132 3.21178e-131 4.47492e-130 6.10727e-129 8.16139e-128 1.06749e-126 1.36606e-125 1.70958e-124 2.09137e-123 2.49972e-122 2.91782e-121 3.32436e-120 3.69498e-119 4.00429e-118 4.22858e-117 4.34864e-116 4.35233e-115 4.23648e-114 4.00769e-113 3.68183e-112 3.28223e-111 2.83692e-110 2.37527e-109 1.92469e-108 1.50785e-107 1.14091e-106 8.32806e-106 5.85764e-105 3.96489e-104 2.57915e-103 1.60998e-102 9.62912e-102 5.50854e-101 3.00873e-100 1.56593e-99 7.74971e-99 3.63851e-98 1.61661e-97 6.7789e-97 2.67493e-96 9.90115e-96 3.42598e-95 1.10408e-94 3.30076e-94 9.11597e-94 2.31572e-93 5.38738e-93 1.14314e-92 2.20467e-92 3.85582e-92 6.11281e-92 8.80282e-92 1.15707e-91 1.39791e-91 1.56422e-91 1.63261e-91 1.60046e-91 1.48787e-91 1.33303e-91 1.1792e-91 1.05926e-91 9.87739e-92 9.63154e-92 9.75143e-92 1.01116e-91 1.06173e-91 1.12405e-91 1.20095e-91 1.29358e-91 1.39268e-91 1.47757e-91 1.52584e-91 1.52764e-91 1.49398e-91 1.45167e-91 1.42664e-91 1.42771e-91 1.44433e-91 1.45945e-91 1.46435e-91 1.46166e-91 1.45743e-91 1.45512e-91 1.45847e-91 1.47644e-91 1.52087e-91 1.59762e-91 1.69901e-91 1.80295e-91 1.87942e-91 1.90238e-91 1.86224e-91 1.77176e-91 1.65956e-91 1.55359e-91 1.46635e-91 1.39404e-91 1.32841e-91 1.2684e-91 1.22118e-91 1.19479e-91 1.1908e-91 1.2028e-91 1.22149e-91 1.24231e-91 1.26729e-91 1.29645e-91 1.31722e-91 1.30546e-91 1.24069e-91 1.12275e-91 9.75079e-92 8.32287e-92 7.23725e-92 6.65047e-92 6.59577e-92 7.03509e-92 7.89695e-92 9.0872e-92 1.04769e-91 1.188e-91 1.30618e-91 1.38143e-91 1.4058e-91 1.38693e-91 1.33991e-91 1.27703e-91 1.20548e-91 1.13201e-91 1.06631e-91 1.01887e-91 9.96841e-92 1.00203e-91 1.03113e-91 1.07626e-91 1.12654e-91 1.17307e-91 1.2159e-91 1.26583e-91 1.33484e-91 1.41896e-91 1.49022e-91 1.50995e-91 1.45495e-91 1.33339e-91 1.17705e-91 1.01957e-91 8.79622e-92 7.58549e-92 6.48434e-92 5.41518e-92 4.35236e-92 3.32229e-92 2.37996e-92 1.58305e-92 9.6943e-93 5.43531e-93 2.78318e-93 1.30166e-93 5.57069e-94 2.18817e-94 7.91733e-95 2.64893e-95 8.22683e-96 2.38063e-96 6.44164e-97 1.63529e-97 3.90695e-98 8.8101e-99 1.8801e-99 3.80639e-100 7.32766e-101 1.34418e-101 2.35416e-102 3.94358e-103 6.32928e-104 9.74782e-105 1.44273e-105 2.05486e-106 2.82002e-107 3.73348e-108 4.77372e-109 5.90118e-110 7.0598e-111 8.18133e-112 9.19217e-113 1.00216e-113 1.06103e-114 1.09173e-115 1.09247e-116 1.06391e-117 1.00898e-118 9.32403e-120 8.40096e-121 7.38412e-122 6.33498e-123 5.30751e-124 4.34457e-125 3.4763e-126 2.72018e-127 2.08245e-128 1.56037e-129 1.1448e-130 8.22716e-132 5.79353e-133 3.99907e-134 2.69516e-135 0 