# vtk DataFile Version 3.0
Gray-Scott Simulation Output
ASCII
DATASET STRUCTURED_POINTS
DIMENSIONS 256 256 1
SPACING 1.0 1.0 1.0
ORIGIN 0 0 0
POINT_DATA 65536
SCALARS u double
LOOKUP_TABLE default
0 0 0 0 0 0 0 0 0 0 0 0 0 0 0 0 0 0 0 0 0 0 0 0 0 0 0 0 0 0 0 0 0 0 0 0 0 0 0 0 0 0 0 0 0 0 0 0 0 0 0 0 0 0 0 0 0 0 0 0 0 0 0 0 0 0 0 0 0 0 0 0 0 0 0 0 0 0 0 0 0 0 0 0 0 0 0 0 0 0 0 0 0 0 0 0 0 0 0 0 0 0 0 0 0 0 0 0 0 0 0 0 0 0 0 0 0 0 0 0 0 0 0 0 0 0 0 0 0 0 0 0 0 0 0 0 0 0 0 0 0 0 0 0 0 0 0 0 0 0 0 0 0 0 0 0 0 0 0 0 0 0 0 0 0 0 0 0 0 0 0 0 0 0 0 0 0 0 0 0 0 0 0 0 0 0 0 0 0 0 0 0 0 0 0 0 0 0 0 0 0 0 0 0 0 0 0 0 0 0 0 0 0 0 0 0 0 0 0 0 0 0 0 0 0 0 0 0 0 0 0 0 0 0 0 0 0 0 0 0 0 0 0 0 0 0 0 0 0 0 0 0 0 0 0 0 
0 8.51002e-159 1.23886e-157 1.77625e-156 2.51951e-155 3.53527e-154 4.90654e-153 6.73492e-152 9.14206e-151 1.22705e-149 1.62833e-148 2.13614e-147 2.76996e-146 3.54996e-145 4.49599e-144 5.62633e-143 6.95611e-142 8.49557e-141 1.02481e-139 1.22086e-138 1.43612e-137 1.66785e-136 1.91208e-135 2.16355e-134 2.41588e-133 2.66171e-132 2.89303e-131 3.10156e-130 3.2792e-129 3.41854e-128 3.51333e-127 3.55897e-126 3.55282e-125 3.49448e-124 3.38581e-123 3.23092e-122 3.03585e-121 2.80823e-120 2.55672e-119 2.29051e-118 2.01873e-117 1.7499e-116 1.49152e-115 1.24972e-114 1.02908e-113 8.32553e-113 6.61581e-112 5.16218e-111 3.95393e-110 2.9719e-109 2.19132e-108 1.58453e-107 1.12321e-106 7.80254e-106 5.30957e-105 3.53804e-104 2.30766e-103 1.47266e-102 9.19111e-102 5.60752e-101 3.34278e-100 1.9461e-99 1.10592e-98 6.13125e-98 3.3144e-97 1.74599e-96 8.95766e-96 4.47295e-95 2.17247e-94 1.0256e-93 4.70279e-93 2.09296e-92 9.03342e-92 3.77813e-91 1.52989e-90 5.99258e-90 2.26845e-89 8.29053e-89 2.9223e-88 9.92413e-88 3.2434e-87 1.01892e-86 3.07321e-86 8.88807e-86 2.46166e-85 6.52044e-85 1.64957e-84 3.98028e-84 9.14783e-84 1.99988e-83 4.15346e-83 8.18498e-83 1.52882e-82 2.70418e-82 4.52641e-82 7.16693e-82 1.07333e-81 1.52082e-81 2.04014e-81 2.59396e-81 3.1309e-81 3.59495e-81 3.93763e-81 4.12946e-81 4.16691e-81 4.07281e-81 3.88983e-81 3.66951e-81 3.4603e-81 3.29857e-81 3.20461e-81 3.18381e-81 3.23098e-81 3.33513e-81 3.48261e-81 3.65808e-81 3.84406e-81 4.02142e-81 4.17185e-81 4.28218e-81 4.34834e-81 4.37646e-81 4.37998e-81 4.37394e-81 4.36957e-81 4.37174e-81 4.38009e-81 4.39252e-81 4.40875e-81 4.43227e-81 4.47023e-81 4.53142e-81 4.62295e-81 4.74616e-81 4.89323e-81 5.0461e-81 5.1791e-81 5.26512e-81 5.28335e-81 5.22547e-81 5.09763e-81 4.91756e-81 4.7084e-81 4.49247e-81 4.28752e-81 4.10596e-81 3.95596e-81 3.84241e-81 3.76713e-81 3.7283e-81 3.72008e-81 3.73281e-81 3.7533e-81 3.7653e-81 3.7504e-81 3.69054e-81 3.5726e-81 3.39384e-81 3.16587e-81 2.91439e-81 2.67436e-81 2.48213e-81 2.36749e-81 2.34804e-81 2.42694e-81 2.59333e-81 2.8246e-81 3.08986e-81 3.35443e-81 3.5853e-81 3.75649e-81 3.85313e-81 3.87292e-81 3.82479e-81 3.72565e-81 3.5967e-81 3.46014e-81 3.33661e-81 3.24291e-81 3.19027e-81 3.18338e-81 3.22064e-81 3.29587e-81 3.40078e-81 3.52694e-81 3.666e-81 3.80777e-81 3.93733e-81 4.03376e-81 4.07266e-81 4.03256e-81 3.90235e-81 3.68563e-81 3.3996e-81 3.06891e-81 2.71804e-81 2.36574e-81 2.02344e-81 1.69712e-81 1.39052e-81 1.10764e-81 8.53448e-82 6.33089e-82 4.50291e-82 3.06079e-82 1.98336e-82 1.22301e-82 7.16858e-83 3.99184e-83 2.11158e-83 1.06136e-83 5.0721e-84 2.30638e-84 9.98885e-85 4.12486e-85 1.62599e-85 6.12575e-86 2.20835e-86 7.62735e-87 2.52698e-87 8.04018e-88 2.45963e-88 7.24268e-89 2.05506e-89 5.62471e-90 1.48648e-90 3.79685e-91 9.38189e-92 2.24463e-92 5.20422e-93 1.17024e-93 2.55409e-94 5.41459e-95 1.11576e-95 2.23638e-96 4.36289e-97 8.28949e-98 1.53485e-98 2.77102e-99 4.88075e-100 8.39144e-101 1.409e-101 2.31163e-102 3.70737e-103 5.81499e-104 8.92391e-105 1.3405e-105 1.97178e-106 2.84119e-107 4.01193e-108 5.5536e-109 7.53905e-110 1.00398e-110 1.31171e-111 1.65685e-112 0 
0 1.23866e-157 1.80216e-156 2.58241e-155 3.66087e-154 5.1338e-153 7.12102e-152 9.76897e-151 1.32529e-149 1.77779e-148 2.35782e-147 3.09136e-146 4.00633e-145 5.13155e-144 6.49537e-143 8.12376e-142 1.00381e-140 1.22527e-139 1.47721e-138 1.7588e-137 2.06774e-136 2.40006e-135 2.74996e-134 3.10989e-133 3.47066e-132 3.82169e-131 4.15153e-130 4.44831e-129 4.7005e-128 4.89754e-127 5.03059e-126 5.09315e-125 5.08158e-124 4.99541e-123 4.83745e-122 4.61366e-121 4.33278e-120 4.00576e-119 3.64505e-118 3.26378e-117 2.87499e-116 2.49082e-115 2.12192e-114 1.77699e-113 1.46248e-112 1.18258e-111 9.39237e-111 7.32489e-110 5.60755e-109 4.21266e-108 3.10461e-107 2.24378e-106 1.58973e-105 1.10378e-104 7.50737e-104 5.00007e-103 3.25965e-102 2.07917e-101 1.29701e-100 7.90929e-100 4.71266e-99 2.74231e-98 1.55765e-97 8.63164e-97 4.66389e-96 2.45575e-95 1.25933e-94 6.28558e-94 3.05149e-93 1.43994e-92 6.59985e-92 2.93597e-91 1.26666e-90 5.29546e-90 2.14343e-89 8.39244e-89 3.17565e-88 1.16016e-87 4.08784e-87 1.38772e-86 4.53368e-86 1.42377e-85 4.2928e-85 1.24112e-84 3.43633e-84 9.09938e-84 2.30132e-83 5.55139e-83 1.27553e-82 2.78786e-82 5.78868e-82 1.1405e-81 2.12988e-81 3.76669e-81 6.30398e-81 9.98021e-81 1.4945e-80 2.11741e-80 2.84028e-80 3.61116e-80 4.35857e-80 5.00457e-80 5.48174e-80 5.74902e-80 5.80154e-80 5.67101e-80 5.41681e-80 5.1106e-80 4.81979e-80 4.59496e-80 4.46435e-80 4.43545e-80 4.50105e-80 4.64585e-80 4.85092e-80 5.09489e-80 5.3535e-80 5.60016e-80 5.80944e-80 5.96301e-80 6.05523e-80 6.09459e-80 6.09975e-80 6.09161e-80 6.08577e-80 6.08898e-80 6.10075e-80 6.11818e-80 6.14088e-80 6.1737e-80 6.22654e-80 6.31166e-80 6.43891e-80 6.61016e-80 6.81452e-80 7.02692e-80 7.21169e-80 7.33117e-80 7.35644e-80 7.27593e-80 7.09818e-80 6.84779e-80 6.55692e-80 6.25661e-80 5.97154e-80 5.719e-80 5.51035e-80 5.35243e-80 5.24774e-80 5.19374e-80 5.18231e-80 5.19995e-80 5.22833e-80 5.2448e-80 5.22375e-80 5.14009e-80 4.97558e-80 4.72648e-80 4.40897e-80 4.05882e-80 3.72468e-80 3.45712e-80 3.29753e-80 3.27042e-80 3.38017e-80 3.61168e-80 3.9335e-80 4.30265e-80 4.6709e-80 4.99232e-80 5.23076e-80 5.3655e-80 5.39334e-80 5.32666e-80 5.18897e-80 5.00974e-80 4.81987e-80 4.64805e-80 4.51767e-80 4.44438e-80 4.43467e-80 4.48637e-80 4.59089e-80 4.73673e-80 4.91214e-80 5.10552e-80 5.30267e-80 5.48282e-80 5.61686e-80 5.67088e-80 5.61505e-80 5.43392e-80 5.1325e-80 4.73465e-80 4.27464e-80 3.78646e-80 3.29616e-80 2.81963e-80 2.36521e-80 1.93815e-80 1.54403e-80 1.18982e-80 8.82698e-81 6.27894e-81 4.2685e-81 2.76628e-81 1.70601e-81 1.00012e-81 5.57007e-82 2.94696e-82 1.48154e-82 7.08159e-83 3.22088e-83 1.39529e-83 5.76331e-84 2.27247e-84 8.5638e-85 3.08821e-85 1.06696e-85 3.53605e-86 1.12546e-86 3.44416e-87 1.01454e-87 2.87975e-88 7.88483e-89 2.08459e-89 5.32664e-90 1.31672e-90 3.15156e-91 7.30997e-92 1.64443e-92 3.59057e-93 7.61517e-94 1.56991e-94 3.14805e-95 6.14419e-96 1.16793e-96 2.16348e-97 3.90775e-98 6.88613e-99 1.18448e-99 1.98979e-100 3.26606e-101 5.24059e-102 8.22382e-103 1.26268e-103 1.89766e-104 2.7927e-105 4.02607e-106 5.6879e-107 7.87756e-108 1.06993e-108 1.42555e-109 1.86344e-110 2.35493e-111 0 
0 1.77567e-156 2.58197e-155 3.69767e-154 5.23884e-153 7.34238e-152 1.01786e-150 1.39554e-149 1.89214e-148 2.53672e-147 3.36241e-146 4.40595e-145 5.70672e-144 7.30533e-143 9.24158e-142 1.15518e-140 1.42659e-139 1.74033e-138 2.09697e-137 2.49529e-136 2.93195e-135 3.40124e-134 3.8949e-133 4.40222e-132 4.91014e-131 5.40375e-130 5.86685e-129 6.28277e-128 6.63527e-127 6.90959e-126 7.09338e-125 7.17765e-124 7.15741e-123 7.03219e-122 6.80611e-121 6.48772e-120 6.08944e-119 5.62679e-118 5.11735e-117 4.57963e-116 4.03193e-115 3.4913e-114 2.97265e-113 2.48811e-112 2.04667e-111 1.65409e-110 1.31304e-109 1.02348e-108 7.83115e-108 5.8801e-107 4.33125e-106 3.12871e-105 2.21559e-104 1.53754e-103 1.04524e-102 6.95807e-102 4.53386e-101 2.8905e-100 1.80225e-99 1.0985e-98 6.54212e-98 3.80506e-97 2.16027e-96 1.19654e-95 6.46223e-95 3.40109e-94 1.74332e-93 8.69731e-93 4.22045e-92 1.99067e-91 9.12009e-91 4.05537e-90 1.74886e-89 7.30832e-89 2.95695e-88 1.15731e-87 4.37744e-87 1.59858e-86 5.63052e-86 1.9107e-85 6.24003e-85 1.95895e-84 5.90441e-84 1.7065e-83 4.72334e-83 1.25036e-82 3.16136e-82 7.6239e-82 1.75128e-81 3.82673e-81 7.94399e-81 1.56483e-80 2.92175e-80 5.16626e-80 8.64506e-80 1.36848e-79 2.04905e-79 2.90286e-79 3.89364e-79 4.95022e-79 5.97467e-79 6.86021e-79 7.51447e-79 7.88121e-79 7.95372e-79 7.77547e-79 7.42775e-79 7.00871e-79 6.61068e-79 6.30293e-79 6.12416e-79 6.08462e-79 6.17444e-79 6.37269e-79 6.65344e-79 6.98746e-79 7.34154e-79 7.67932e-79 7.96598e-79 8.17647e-79 8.30303e-79 8.3573e-79 8.36474e-79 8.35395e-79 8.34625e-79 8.35091e-79 8.36727e-79 8.39135e-79 8.42262e-79 8.46769e-79 8.54015e-79 8.65673e-79 8.83092e-79 9.06526e-79 9.34487e-79 9.63545e-79 9.8882e-79 1.00516e-78 1.00861e-78 9.9758e-79 9.73244e-79 9.38963e-79 8.99135e-79 8.58009e-79 8.18967e-79 7.8438e-79 7.55803e-79 7.34177e-79 7.19842e-79 7.12448e-79 7.10882e-79 7.13291e-79 7.1716e-79 7.19385e-79 7.16458e-79 7.04942e-79 6.82347e-79 6.48168e-79 6.04622e-79 5.56617e-79 5.10816e-79 4.74143e-79 4.52268e-79 4.48547e-79 4.6358e-79 4.95298e-79 5.39393e-79 5.89977e-79 6.40448e-79 6.84511e-79 7.17212e-79 7.35712e-79 7.39569e-79 7.30474e-79 7.11644e-79 6.87116e-79 6.61122e-79 6.37591e-79 6.19729e-79 6.09678e-79 6.08333e-79 6.15395e-79 6.29694e-79 6.49654e-79 6.73669e-79 7.00147e-79 7.27142e-79 7.51806e-79 7.70152e-79 7.77539e-79 7.69885e-79 7.45076e-79 7.03797e-79 6.4931e-79 5.863e-79 5.19419e-79 4.52228e-79 3.86905e-79 3.24595e-79 2.6602e-79 2.11948e-79 1.63343e-79 1.21194e-79 8.62185e-80 5.8619e-80 3.79937e-80 2.34345e-80 1.374e-80 7.65366e-81 4.05005e-81 2.0365e-81 9.73628e-82 4.4293e-82 1.91925e-82 7.92959e-83 3.12749e-83 1.17893e-83 4.25265e-84 1.46973e-84 4.87247e-85 1.55134e-85 4.74911e-86 1.39943e-86 3.97371e-87 1.08842e-87 2.87867e-88 7.35861e-89 1.81974e-89 4.35731e-90 1.01109e-90 2.27547e-91 4.97055e-92 1.05465e-92 2.17517e-93 4.36368e-94 8.52063e-95 1.62039e-95 3.003e-96 5.42663e-97 9.56715e-98 1.64642e-98 2.76711e-99 4.54413e-100 7.29487e-101 1.14531e-101 1.75936e-102 2.64541e-103 3.89507e-104 5.61811e-105 7.94106e-106 1.10037e-106 1.49528e-107 1.99329e-108 2.60693e-109 3.29616e-110 0 
0 2.51824e-155 3.65962e-154 5.23793e-153 7.41676e-152 1.03887e-150 1.43933e-149 1.97226e-148 2.67254e-147 3.5809e-146 4.74375e-145 6.21241e-144 8.04188e-143 1.02887e-141 1.30083e-140 1.62509e-139 2.00575e-138 2.44548e-137 2.94495e-136 3.50236e-135 4.11293e-134 4.76855e-133 5.45761e-132 6.16501e-131 6.87248e-130 7.55914e-129 8.20239e-128 8.779e-127 9.26643e-126 9.6442e-125 9.89528e-124 1.00073e-122 9.97366e-122 9.79382e-121 9.4738e-120 9.02571e-119 8.46705e-118 7.81954e-117 7.10776e-116 6.35748e-115 5.59418e-114 4.8415e-113 4.12009e-112 3.4467e-111 2.8337e-110 2.28896e-109 1.81606e-108 1.41484e-107 1.08201e-106 8.1202e-106 5.97825e-105 4.31624e-104 3.05499e-103 2.119e-102 1.4398e-101 9.57987e-101 6.23915e-100 3.97574e-99 2.47771e-98 1.50947e-97 8.98535e-97 5.22363e-96 2.96425e-95 1.64109e-94 8.859e-94 4.66039e-93 2.38772e-92 1.19069e-91 5.77535e-91 2.72289e-90 1.24693e-89 5.54227e-89 2.38908e-88 9.97958e-88 4.03611e-87 1.57904e-86 5.97028e-86 2.17943e-85 7.67347e-85 2.60302e-84 8.49798e-84 2.66686e-83 8.03542e-83 2.32165e-82 6.42398e-82 1.70004e-81 4.29708e-81 1.036e-80 2.37917e-80 5.1975e-80 1.07872e-79 2.12446e-79 3.96594e-79 7.01146e-79 1.17311e-78 1.85677e-78 2.77989e-78 3.93792e-78 5.28169e-78 6.71467e-78 8.10413e-78 9.30531e-78 1.0193e-77 1.06909e-77 1.079e-77 1.05492e-77 1.00785e-77 9.5111e-78 8.97205e-78 8.55525e-78 8.31312e-78 8.2596e-78 8.38129e-78 8.64986e-78 9.03019e-78 9.48268e-78 9.96239e-78 1.04201e-77 1.08086e-77 1.10941e-77 1.1266e-77 1.134e-77 1.13505e-77 1.13364e-77 1.13264e-77 1.13331e-77 1.13556e-77 1.13885e-77 1.14311e-77 1.14924e-77 1.15907e-77 1.17487e-77 1.19846e-77 1.23019e-77 1.26805e-77 1.30738e-77 1.34159e-77 1.3637e-77 1.36836e-77 1.35341e-77 1.32044e-77 1.274e-77 1.22004e-77 1.16431e-77 1.1114e-77 1.06453e-77 1.0258e-77 9.96498e-78 9.77077e-78 9.67061e-78 9.64938e-78 9.68193e-78 9.73412e-78 9.76386e-78 9.72358e-78 9.56675e-78 9.25967e-78 8.79559e-78 8.20467e-78 7.55343e-78 6.9322e-78 6.43482e-78 6.13813e-78 6.08759e-78 6.29133e-78 6.72131e-78 7.31914e-78 8.00503e-78 8.68949e-78 9.28719e-78 9.73098e-78 9.98234e-78 1.00352e-77 9.91246e-78 9.65768e-78 9.32555e-78 8.97341e-78 8.65454e-78 8.41239e-78 8.27602e-78 8.25756e-78 8.35301e-78 8.54656e-78 8.81687e-78 9.14219e-78 9.50093e-78 9.86667e-78 1.02008e-77 1.04493e-77 1.05492e-77 1.04454e-77 1.01091e-77 9.54977e-78 8.81138e-78 7.95738e-78 7.05071e-78 6.1396e-78 5.25354e-78 4.40809e-78 3.61308e-78 2.87902e-78 2.21903e-78 1.6466e-78 1.17154e-78 7.96604e-79 5.16378e-79 3.18544e-79 1.86795e-79 1.04067e-79 5.50785e-80 2.77006e-80 1.32461e-80 6.02737e-81 2.61233e-81 1.07959e-81 4.25912e-82 1.60597e-82 5.79476e-83 2.00331e-83 6.64352e-84 2.11592e-84 6.47969e-85 1.91006e-85 5.42563e-86 1.48666e-86 3.93343e-87 1.00588e-87 2.48846e-88 5.96093e-89 1.38377e-89 3.11549e-90 6.80837e-91 1.44522e-91 2.982e-92 5.98492e-93 1.16915e-93 2.2244e-94 4.12428e-95 7.45629e-96 1.31515e-96 2.26432e-97 3.80741e-98 6.25548e-99 1.0047e-99 1.57816e-100 2.42546e-101 3.64878e-102 5.37508e-103 7.75667e-104 1.09694e-104 1.52076e-105 2.06758e-106 2.75762e-107 3.60839e-108 4.56467e-109 0 
0 3.53284e-154 5.13112e-153 7.33979e-152 1.03869e-150 1.45406e-149 2.0134e-148 2.75728e-147 3.73413e-146 5.00044e-145 6.62044e-144 8.66515e-143 1.12105e-141 1.43345e-140 1.8113e-139 2.26152e-138 2.78968e-137 3.39934e-136 4.09132e-135 4.86296e-134 5.70751e-133 6.61359e-132 7.56501e-131 8.54079e-130 9.51558e-129 1.04605e-127 1.13443e-126 1.21351e-125 1.28018e-124 1.33163e-123 1.36555e-122 1.38026e-121 1.37486e-120 1.34934e-119 1.30454e-118 1.24217e-117 1.16465e-116 1.07501e-115 9.76632e-115 8.73076e-114 7.67843e-113 6.6418e-112 5.64916e-111 4.72337e-110 3.88129e-109 3.13353e-108 2.48486e-107 1.93487e-106 1.47895e-105 1.10935e-104 8.1631e-104 5.89071e-103 4.16729e-102 2.88906e-101 1.96207e-100 1.30484e-99 8.49394e-99 5.40992e-98 3.36986e-97 2.052e-96 1.22091e-95 7.09439e-95 4.02397e-94 2.22674e-93 1.2015e-92 6.31776e-92 3.23541e-91 1.61269e-90 7.8188e-90 3.6847e-89 1.68666e-88 7.49361e-88 3.22888e-87 1.34821e-86 5.45044e-86 2.13152e-85 8.05606e-85 2.93972e-84 1.03465e-83 3.50851e-83 1.145e-82 3.59205e-82 1.08195e-81 3.12503e-81 8.64427e-81 2.28694e-80 5.77892e-80 1.39289e-79 3.19796e-79 6.98458e-79 1.44931e-78 2.85373e-78 5.32638e-78 9.41512e-78 1.57506e-77 2.49266e-77 3.73157e-77 5.28565e-77 7.08892e-77 9.0119e-77 1.08765e-76 1.24887e-76 1.36804e-76 1.43493e-76 1.44833e-76 1.41613e-76 1.3531e-76 1.27709e-76 1.20486e-76 1.149e-76 1.11656e-76 1.10939e-76 1.1257e-76 1.1617e-76 1.21268e-76 1.27333e-76 1.33763e-76 1.39899e-76 1.45109e-76 1.4894e-76 1.51249e-76 1.52248e-76 1.52397e-76 1.52214e-76 1.52085e-76 1.5218e-76 1.52486e-76 1.52931e-76 1.53506e-76 1.5433e-76 1.55649e-76 1.57768e-76 1.60929e-76 1.6518e-76 1.70251e-76 1.75519e-76 1.801e-76 1.8306e-76 1.83682e-76 1.81678e-76 1.77259e-76 1.71033e-76 1.638e-76 1.56329e-76 1.49235e-76 1.4295e-76 1.37757e-76 1.33828e-76 1.31225e-76 1.29883e-76 1.29598e-76 1.30033e-76 1.3073e-76 1.31123e-76 1.30575e-76 1.28461e-76 1.24332e-76 1.18098e-76 1.10163e-76 1.01422e-76 9.30847e-77 8.64102e-77 8.24286e-77 8.17493e-77 8.44814e-77 9.02487e-77 9.82683e-77 1.0747e-76 1.16655e-76 1.24677e-76 1.30636e-76 1.34015e-76 1.34732e-76 1.33093e-76 1.29682e-76 1.25232e-76 1.20513e-76 1.16237e-76 1.12989e-76 1.11159e-76 1.10908e-76 1.12184e-76 1.14776e-76 1.18398e-76 1.22759e-76 1.27567e-76 1.3247e-76 1.36949e-76 1.40278e-76 1.41616e-76 1.40223e-76 1.35714e-76 1.28214e-76 1.18313e-76 1.06861e-76 9.46998e-77 8.24756e-77 7.05837e-77 5.92332e-77 4.85566e-77 3.86962e-77 2.98288e-77 2.21364e-77 1.57515e-77 1.07117e-77 6.9444e-78 4.28442e-78 2.51275e-78 1.40013e-78 7.41156e-79 3.72819e-79 1.78314e-79 8.1156e-80 3.51822e-80 1.45433e-80 5.73904e-81 2.16459e-81 7.81272e-82 2.70176e-82 8.96262e-83 2.85548e-83 8.74743e-84 2.57944e-84 7.32965e-85 2.00912e-85 5.31775e-86 1.3604e-86 3.36685e-87 8.06828e-88 1.87372e-88 4.22035e-89 9.22672e-90 1.9594e-90 4.04468e-91 8.12129e-92 1.58719e-92 3.02111e-93 5.60399e-94 1.01361e-94 1.78865e-95 3.08098e-96 5.18304e-97 8.51965e-98 1.369e-98 2.15144e-99 3.30813e-100 4.97906e-101 7.33836e-102 1.05951e-102 1.49909e-103 2.07933e-104 2.82843e-105 3.7743e-106 4.94125e-107 6.25387e-108 0 
0 4.90228e-153 7.11599e-152 1.01731e-150 1.43881e-149 2.01303e-148 2.78577e-147 3.81282e-146 5.16065e-145 6.90674e-144 9.13909e-143 1.19548e-141 1.54577e-140 1.97539e-139 2.49468e-138 3.11299e-137 3.83782e-136 4.67389e-135 5.62215e-134 6.67875e-133 7.83423e-132 9.07285e-131 1.03722e-129 1.17036e-128 1.30321e-127 1.43183e-126 1.55194e-125 1.65921e-124 1.7494e-123 1.81871e-122 1.86402e-121 1.88306e-120 1.87468e-119 1.83888e-118 1.77686e-117 1.69099e-116 1.58462e-115 1.46187e-114 1.32738e-113 1.186e-112 1.0425e-111 9.01281e-111 7.66178e-110 6.40282e-109 5.25857e-108 4.24327e-107 3.36314e-106 2.61742e-105 1.99964e-104 1.49915e-103 1.10259e-102 7.95254e-102 5.62309e-101 3.89639e-100 2.64487e-99 1.75806e-98 1.14387e-97 7.28193e-97 4.53377e-96 2.75942e-95 1.64103e-94 9.53116e-94 5.4036e-93 2.98882e-92 1.61196e-91 8.47223e-91 4.33681e-90 2.16072e-89 1.04713e-88 4.93259e-88 2.25692e-87 1.0023e-86 4.31696e-86 1.8018e-85 7.28129e-85 2.8464e-84 1.07538e-83 3.92267e-83 1.3801e-82 4.67825e-82 1.52622e-81 4.78635e-81 1.4412e-80 4.16137e-80 1.15074e-79 3.04353e-79 7.68864e-79 1.8527e-78 4.25261e-78 9.28586e-78 1.92641e-77 3.79243e-77 7.07719e-77 1.2508e-76 2.09217e-76 3.31067e-76 4.95567e-76 7.01904e-76 9.41317e-76 1.19662e-75 1.44419e-75 1.65826e-75 1.81654e-75 1.90546e-75 1.92339e-75 1.8808e-75 1.7973e-75 1.69654e-75 1.60079e-75 1.52674e-75 1.48373e-75 1.47423e-75 1.49586e-75 1.5436e-75 1.6112e-75 1.69162e-75 1.7769e-75 1.85828e-75 1.92741e-75 1.97826e-75 2.00896e-75 2.02229e-75 2.02435e-75 2.02201e-75 2.02039e-75 2.02171e-75 2.02583e-75 2.03179e-75 2.03945e-75 2.05042e-75 2.06794e-75 2.09604e-75 2.13796e-75 2.1943e-75 2.26149e-75 2.33129e-75 2.39198e-75 2.43119e-75 2.43941e-75 2.41282e-75 2.35421e-75 2.27166e-75 2.17573e-75 2.07663e-75 1.98253e-75 1.89916e-75 1.83028e-75 1.77817e-75 1.74365e-75 1.72585e-75 1.72208e-75 1.72783e-75 1.73704e-75 1.74218e-75 1.73479e-75 1.70662e-75 1.65168e-75 1.56882e-75 1.46342e-75 1.34734e-75 1.23664e-75 1.14803e-75 1.09517e-75 1.08613e-75 1.12238e-75 1.19891e-75 1.30534e-75 1.42748e-75 1.5494e-75 1.65592e-75 1.73509e-75 1.78003e-75 1.78965e-75 1.76801e-75 1.72283e-75 1.66385e-75 1.60127e-75 1.54456e-75 1.50146e-75 1.47714e-75 1.47378e-75 1.49066e-75 1.52501e-75 1.57302e-75 1.63083e-75 1.69461e-75 1.75962e-75 1.81901e-75 1.86315e-75 1.88087e-75 1.86237e-75 1.80255e-75 1.70307e-75 1.57174e-75 1.4198e-75 1.25842e-75 1.09615e-75 9.38253e-76 7.87489e-76 6.45634e-76 5.14587e-76 3.96712e-76 2.94439e-76 2.09535e-76 1.42509e-76 9.23996e-77 5.70143e-77 3.34427e-77 1.86375e-77 9.86738e-78 4.96445e-78 2.3749e-78 1.08112e-78 4.68787e-79 1.9383e-79 7.65088e-80 2.88647e-80 1.04212e-80 3.6049e-81 1.19624e-81 3.81242e-82 1.16828e-82 3.44621e-83 9.7961e-84 2.68617e-84 7.11242e-85 1.82021e-85 4.50657e-86 1.08038e-86 2.51001e-87 5.65582e-88 1.23701e-88 2.62805e-89 5.42726e-90 1.09021e-90 2.13159e-91 4.05915e-92 7.53287e-93 1.36311e-93 2.40649e-94 4.14715e-95 6.97987e-96 1.14786e-96 1.84535e-97 2.90142e-98 4.46348e-99 6.72125e-100 9.91092e-101 1.43164e-101 2.02662e-102 2.81245e-103 3.82758e-104 5.11016e-105 6.69354e-106 8.47583e-107 0 
0 6.72779e-152 9.76021e-151 1.39452e-149 1.97117e-148 2.75625e-147 3.81209e-146 5.21452e-145 7.0538e-144 9.43501e-143 1.24774e-141 1.63123e-140 2.10798e-139 2.69233e-138 3.39816e-137 4.23799e-136 5.22181e-135 6.3558e-134 7.64098e-133 9.07189e-132 1.06354e-130 1.231e-129 1.40652e-128 1.58617e-127 1.76524e-126 1.93838e-125 2.09984e-124 2.24373e-123 2.36439e-122 2.45673e-121 2.51655e-120 2.54088e-119 2.5282e-118 2.47857e-117 2.39369e-116 2.27679e-115 2.13242e-114 1.96618e-113 1.78435e-112 1.59345e-111 1.39991e-110 1.20964e-109 1.02778e-108 8.58448e-108 7.0467e-107 5.68321e-106 4.50209e-105 3.50203e-104 2.6741e-103 2.00379e-102 1.47299e-101 1.06188e-100 7.50462e-100 5.19758e-99 3.52639e-98 2.34287e-97 1.52363e-96 9.69483e-96 6.03317e-95 3.67027e-94 2.18169e-93 1.26654e-92 7.17722e-92 3.96802e-91 2.1391e-90 1.12378e-89 5.7499e-89 2.86351e-88 1.38711e-87 6.53132e-87 2.98716e-86 1.32605e-85 5.70905e-85 2.38186e-84 9.6216e-84 3.75982e-83 1.41993e-82 5.17757e-82 1.82095e-81 6.17044e-81 2.01233e-80 6.30875e-80 1.899e-79 5.4815e-79 1.51534e-78 4.00669e-78 1.01191e-77 2.43772e-77 5.59407e-77 1.22123e-76 2.53299e-76 4.98561e-76 9.30223e-76 1.64379e-75 2.74917e-75 4.34981e-75 6.51055e-75 9.22066e-75 1.23651e-74 1.57183e-74 1.897e-74 2.1782e-74 2.38617e-74 2.50308e-74 2.52682e-74 2.47111e-74 2.36168e-74 2.22957e-74 2.104e-74 2.00689e-74 1.95048e-74 1.93803e-74 1.96642e-74 2.02904e-74 2.11771e-74 2.22321e-74 2.33507e-74 2.44185e-74 2.53258e-74 2.59935e-74 2.63972e-74 2.65732e-74 2.66015e-74 2.65719e-74 2.65517e-74 2.65699e-74 2.66247e-74 2.67036e-74 2.68048e-74 2.69492e-74 2.71794e-74 2.75481e-74 2.80977e-74 2.88364e-74 2.97172e-74 3.06321e-74 3.14275e-74 3.19412e-74 3.20485e-74 3.16996e-74 3.09308e-74 2.98479e-74 2.85893e-74 2.72891e-74 2.60544e-74 2.49603e-74 2.40565e-74 2.33728e-74 2.292e-74 2.26865e-74 2.2637e-74 2.27124e-74 2.28326e-74 2.28991e-74 2.28007e-74 2.24292e-74 2.17062e-74 2.06167e-74 1.92316e-74 1.77066e-74 1.62527e-74 1.5089e-74 1.43946e-74 1.42758e-74 1.47515e-74 1.57561e-74 1.71534e-74 1.87571e-74 2.03582e-74 2.17574e-74 2.27978e-74 2.33891e-74 2.35168e-74 2.3234e-74 2.26422e-74 2.18689e-74 2.1048e-74 2.03039e-74 1.97382e-74 1.94186e-74 1.93739e-74 1.95949e-74 2.0045e-74 2.06745e-74 2.14329e-74 2.22695e-74 2.31224e-74 2.39014e-74 2.44802e-74 2.47124e-74 2.44694e-74 2.36844e-74 2.2379e-74 2.06557e-74 1.86616e-74 1.65431e-74 1.44124e-74 1.23383e-74 1.03573e-74 8.49274e-75 6.76979e-75 5.21966e-75 3.87444e-75 2.75752e-75 1.87565e-75 1.21628e-75 7.50586e-76 4.40331e-76 2.45431e-76 1.29962e-76 6.53978e-77 3.12912e-77 1.42476e-77 6.17935e-78 2.5556e-78 1.00901e-78 3.80774e-79 1.37512e-79 4.75822e-80 1.57943e-80 5.03527e-81 1.54352e-81 4.55464e-82 1.29514e-82 3.55266e-83 9.41014e-84 2.40915e-84 5.96699e-85 1.43105e-85 3.32603e-86 7.49762e-87 1.64052e-87 3.48676e-88 7.20365e-89 1.44767e-89 2.83173e-90 5.39478e-91 1.0016e-91 1.81326e-92 3.20265e-93 5.52173e-94 9.29767e-95 1.52975e-95 2.46044e-96 3.87037e-97 5.95696e-98 8.9745e-99 1.32399e-99 1.91345e-100 2.71e-101 3.76269e-102 5.12336e-103 6.84359e-104 8.96859e-105 1.13623e-105 0 
0 9.1306e-151 1.32384e-149 1.89039e-148 2.67054e-147 3.732e-146 5.15866e-145 7.05242e-144 9.53449e-143 1.27458e-141 1.68461e-140 2.20112e-139 2.84282e-138 3.6288e-137 4.57754e-136 5.70562e-135 7.02617e-134 8.54718e-133 1.02697e-131 1.2186e-130 1.42783e-129 1.65173e-128 1.88618e-127 2.12591e-126 2.36461e-125 2.5951e-124 2.8097e-123 3.00059e-122 3.16022e-121 3.28185e-120 3.35993e-119 3.39057e-118 3.37181e-117 3.30384e-116 3.18899e-115 3.03162e-114 2.83787e-113 2.61525e-112 2.37213e-111 2.11723e-110 1.85909e-109 1.60557e-108 1.36347e-107 1.13824e-106 9.3386e-106 7.52777e-105 5.96025e-104 4.63392e-103 3.53661e-102 2.64875e-101 1.94613e-100 1.40227e-99 9.90534e-99 6.8569e-98 4.64991e-97 3.08781e-96 2.00711e-95 1.27652e-94 7.94008e-94 4.82806e-93 2.86857e-92 1.66452e-91 9.42818e-91 5.21012e-90 2.80744e-89 1.47423e-88 7.53971e-88 3.75322e-87 1.81732e-86 8.55335e-86 3.91032e-85 1.73514e-84 7.46729e-84 3.11418e-83 1.25749e-82 4.91199e-82 1.85437e-81 6.75918e-81 2.37634e-80 8.04965e-80 2.6243e-79 8.22458e-79 2.47489e-78 7.14165e-78 1.97371e-77 5.21717e-77 1.31726e-76 3.17253e-76 7.27859e-76 1.58862e-75 3.29433e-75 6.48294e-75 1.20939e-74 2.1368e-74 3.57324e-74 5.65307e-74 8.46045e-74 1.19814e-73 1.60665e-73 2.04228e-73 2.46475e-73 2.83013e-73 3.10042e-73 3.2525e-73 3.28358e-73 3.2115e-73 3.06964e-73 2.89832e-73 2.73545e-73 2.60948e-73 2.5363e-73 2.52016e-73 2.557e-73 2.63824e-73 2.75329e-73 2.89018e-73 3.03534e-73 3.17391e-73 3.29169e-73 3.37842e-73 3.43093e-73 3.45391e-73 3.45774e-73 3.45405e-73 3.45155e-73 3.45404e-73 3.46125e-73 3.47159e-73 3.4848e-73 3.5036e-73 3.53351e-73 3.58136e-73 3.65266e-73 3.74845e-73 3.86265e-73 3.98126e-73 4.08436e-73 4.15093e-73 4.16481e-73 4.11951e-73 4.01975e-73 3.87924e-73 3.71592e-73 3.54718e-73 3.38692e-73 3.24492e-73 3.12762e-73 3.0389e-73 2.98014e-73 2.94986e-73 2.94344e-73 2.95319e-73 2.96872e-73 2.97723e-73 2.96428e-73 2.91581e-73 2.8217e-73 2.68e-73 2.49997e-73 2.3018e-73 2.11292e-73 1.96173e-73 1.87152e-73 1.85606e-73 1.9178e-73 2.04825e-73 2.2297e-73 2.43798e-73 2.64596e-73 2.82776e-73 2.963e-73 3.03996e-73 3.05673e-73 3.02019e-73 2.9435e-73 2.84322e-73 2.73671e-73 2.64014e-73 2.56668e-73 2.52515e-73 2.51928e-73 2.54788e-73 2.60622e-73 2.68787e-73 2.78625e-73 2.89481e-73 3.00548e-73 3.10655e-73 3.18163e-73 3.21173e-73 3.18016e-73 3.07827e-73 2.90883e-73 2.68515e-73 2.42628e-73 2.1512e-73 1.87446e-73 1.60498e-73 1.34749e-73 1.10507e-73 8.80995e-74 6.79348e-74 5.04322e-74 3.58976e-74 2.44201e-74 1.58372e-74 9.77463e-75 5.73505e-75 3.19707e-75 1.6932e-75 8.52183e-76 4.07826e-76 1.85731e-76 8.05715e-77 3.33299e-77 1.31627e-77 4.96858e-78 1.79484e-78 6.21234e-79 2.06273e-79 6.57811e-80 2.01712e-80 5.95413e-81 1.69368e-81 4.64751e-82 1.23146e-82 3.15391e-83 7.81457e-84 1.87487e-84 4.35928e-85 9.83075e-86 2.1519e-86 4.57553e-87 9.45703e-88 1.90132e-88 3.72072e-89 7.09151e-90 1.31719e-90 2.38567e-91 4.21558e-92 7.27144e-93 1.22495e-93 2.01635e-94 3.24463e-95 5.10633e-96 7.86299e-97 1.18518e-97 1.74931e-98 2.52937e-99 3.58408e-100 4.97875e-101 6.78254e-102 9.06439e-103 1.18849e-103 1.50644e-104 0 
0 1.22527e-149 1.7755e-148 2.53387e-147 3.5775e-146 4.99658e-145 6.90269e-144 9.43125e-143 1.27432e-141 1.70256e-140 2.24898e-139 2.93686e-138 3.79089e-137 4.83625e-136 6.09722e-135 7.59551e-134 9.3482e-133 1.13655e-131 1.36483e-130 1.6186e-129 1.89545e-128 2.19145e-127 2.50112e-126 2.81745e-125 3.13206e-124 3.43547e-123 3.71752e-122 3.96791e-121 4.17672e-120 4.3351e-119 4.43582e-118 4.47385e-117 4.4467e-116 4.35472e-115 4.20108e-114 3.99163e-113 3.73454e-112 3.43975e-111 3.11833e-110 2.78179e-109 2.44135e-108 2.10732e-107 1.78863e-106 1.4924e-105 1.2238e-104 9.85986e-104 7.80275e-103 6.06333e-102 4.6252e-101 3.46232e-100 2.54262e-99 1.83115e-98 1.29285e-97 8.94528e-97 6.06316e-96 4.02435e-95 2.61462e-94 1.6621e-93 1.03336e-92 6.2805e-92 3.7298e-91 2.16327e-90 1.22476e-89 6.7651e-89 3.6437e-88 1.91253e-87 9.77702e-87 4.86484e-86 2.35456e-85 1.10773e-84 5.0621e-84 2.24531e-83 9.65896e-83 4.02661e-82 1.6253e-81 6.3463e-81 2.39496e-80 8.72649e-80 3.06691e-79 1.03853e-78 3.38462e-78 1.0604e-77 3.18989e-77 9.20212e-77 2.54241e-76 6.7186e-76 1.69591e-75 4.08346e-75 9.3663e-75 2.04384e-74 4.23748e-74 8.33746e-74 1.5551e-73 2.74721e-73 4.59342e-73 7.26629e-73 1.08739e-72 1.53982e-72 2.06473e-72 2.62449e-72 3.16736e-72 3.63692e-72 3.98438e-72 4.18003e-72 4.22029e-72 4.12805e-72 3.94619e-72 3.72645e-72 3.51751e-72 3.35589e-72 3.26202e-72 3.24132e-72 3.2886e-72 3.39286e-72 3.54049e-72 3.71615e-72 3.90244e-72 4.0803e-72 4.23152e-72 4.34294e-72 4.41048e-72 4.44017e-72 4.44527e-72 4.44073e-72 4.4377e-72 4.44105e-72 4.45045e-72 4.46383e-72 4.4809e-72 4.50511e-72 4.54354e-72 4.60496e-72 4.69643e-72 4.81928e-72 4.96572e-72 5.11779e-72 5.24997e-72 5.33529e-72 5.35303e-72 5.29487e-72 5.16685e-72 4.98653e-72 4.77692e-72 4.56035e-72 4.35463e-72 4.17235e-72 4.02178e-72 3.90791e-72 3.8325e-72 3.79366e-72 3.78542e-72 3.79792e-72 3.81777e-72 3.82852e-72 3.81166e-72 3.74912e-72 3.62796e-72 3.4457e-72 3.21424e-72 2.95957e-72 2.71686e-72 2.5226e-72 2.40669e-72 2.38679e-72 2.46605e-72 2.63357e-72 2.86662e-72 3.13415e-72 3.40135e-72 3.63498e-72 3.80886e-72 3.90792e-72 3.9297e-72 3.88301e-72 3.78473e-72 3.6561e-72 3.51944e-72 3.39548e-72 3.30114e-72 3.24777e-72 3.24013e-72 3.27674e-72 3.35153e-72 3.45626e-72 3.5825e-72 3.7218e-72 3.86384e-72 3.99353e-72 4.08985e-72 4.12843e-72 4.08786e-72 3.95706e-72 3.73957e-72 3.45241e-72 3.12005e-72 2.76679e-72 2.41128e-72 2.06497e-72 1.73397e-72 1.42223e-72 1.13399e-72 8.74544e-73 6.49302e-73 4.62223e-73 3.14472e-73 2.03968e-73 1.25904e-73 7.38811e-74 4.11919e-74 2.18191e-74 1.09834e-74 5.25725e-75 2.39473e-75 1.03907e-75 4.29932e-76 1.69831e-76 6.41234e-77 2.31701e-77 8.02197e-78 2.66439e-78 8.49942e-79 2.6071e-79 7.69819e-80 2.19052e-80 6.01297e-81 1.59384e-81 4.0835e-82 1.01216e-82 2.42931e-83 5.65062e-84 1.27479e-84 2.79158e-85 5.93811e-86 1.22784e-86 2.4696e-87 4.83485e-88 9.21899e-89 1.71311e-89 3.10411e-90 5.48756e-91 9.46977e-92 1.59602e-92 2.62836e-93 4.23141e-94 6.66245e-95 1.0264e-95 1.54782e-96 2.28568e-97 3.30651e-98 4.68756e-99 6.51483e-100 8.87953e-101 1.18728e-101 1.5575e-102 1.97512e-103 0 