# vtk DataFile Version 3.0
Gray-Scott Simulation Output
ASCII
DATASET STRUCTURED_POINTS
DIMENSIONS 256 256 1
SPACING 1.0 1.0 1.0
ORIGIN 0 0 0
POINT_DATA 65536
SCALARS u double
LOOKUP_TABLE default
0 0 0 0 0 0 0 0 0 0 0 0 0 0 0 0 0 0 0 0 0 0 0 0 0 0 0 0 0 0 0 0 0 0 0 0 0 0 0 0 0 0 0 0 0 0 0 0 0 0 0 0 0 0 0 0 0 0 0 0 0 0 0 0 0 0 0 0 0 0 0 0 0 0 0 0 0 0 0 0 0 0 0 0 0 0 0 0 0 0 0 0 0 0 0 0 0 0 0 0 0 0 0 0 0 0 0 0 0 0 0 0 0 0 0 0 0 0 0 0 0 0 0 0 0 0 0 0 0 0 0 0 0 0 0 0 0 0 0 0 0 0 0 0 0 0 0 0 0 0 0 0 0 0 0 0 0 0 0 0 0 0 0 0 0 0 0 0 0 0 0 0 0 0 0 0 0 0 0 0 0 0 0 0 0 0 0 0 0 0 0 0 0 0 0 0 0 0 0 0 0 0 0 0 0 0 0 0 0 0 0 0 0 0 0 0 0 0 0 0 0 0 0 0 0 0 0 0 0 0 0 0 0 0 0 0 0 0 0 0 0 0 0 0 0 0 0 0 0 0 0 0 0 0 0 0 
0 9.90289e-84 4.09838e-83 1.58574e-82 6.05966e-82 2.29463e-81 8.61176e-81 3.20304e-80 1.18058e-79 4.31182e-79 1.56037e-78 5.59452e-78 1.98719e-77 6.99231e-77 2.43712e-76 8.41348e-76 2.87662e-75 9.7401e-75 3.26577e-74 1.08421e-73 3.56377e-73 1.15969e-72 3.73571e-72 1.19115e-71 3.75908e-71 1.17404e-70 3.62857e-70 1.10967e-69 3.35757e-69 1.00504e-68 2.97601e-68 8.71627e-68 2.52484e-67 7.23269e-67 2.04874e-66 5.73789e-66 1.58873e-65 4.34846e-65 1.17643e-64 3.14551e-64 8.31128e-64 2.16994e-63 5.59736e-63 1.42635e-62 3.59026e-62 8.92556e-62 2.1913e-61 5.31224e-61 1.27148e-60 3.00431e-60 7.007e-60 1.61294e-59 3.66397e-59 8.21251e-59 1.81609e-58 3.96171e-58 8.52423e-58 1.80884e-57 3.78497e-57 7.80883e-57 1.58823e-56 3.18414e-56 6.29162e-56 1.2251e-55 2.3505e-55 4.44298e-55 8.27296e-55 1.51727e-54 2.74049e-54 4.87417e-54 8.53555e-54 1.47153e-53 2.49724e-53 4.1712e-53 6.85682e-53 1.10918e-52 1.76545e-52 2.76466e-52 4.25921e-52 6.45475e-52 9.62199e-52 1.41078e-51 2.03442e-51 2.88531e-51 4.02444e-51 5.52045e-51 7.44737e-51 9.881e-51 1.2894e-50 1.65499e-50 2.0896e-50 2.59564e-50 3.17256e-50 3.81632e-50 4.5191e-50 5.26937e-50 6.05221e-50 6.85011e-50 7.64392e-50 8.41425e-50 9.14275e-50 9.81351e-50 1.04142e-49 1.09368e-49 1.13782e-49 1.17401e-49 1.20285e-49 1.22526e-49 1.24243e-49 1.25564e-49 1.26618e-49 1.27523e-49 1.28376e-49 1.29253e-49 1.30203e-49 1.31251e-49 1.324e-49 1.33638e-49 1.34941e-49 1.36284e-49 1.37636e-49 1.38976e-49 1.40284e-49 1.41551e-49 1.42771e-49 1.43944e-49 1.45074e-49 1.46162e-49 1.47208e-49 1.48205e-49 1.49142e-49 1.5e-49 1.50752e-49 1.51368e-49 1.51814e-49 1.52057e-49 1.52067e-49 1.51822e-49 1.5131e-49 1.50529e-49 1.49491e-49 1.48216e-49 1.46737e-49 1.4509e-49 1.43315e-49 1.41451e-49 1.39531e-49 1.3758e-49 1.35615e-49 1.33644e-49 1.3167e-49 1.29689e-49 1.27701e-49 1.25707e-49 1.23717e-49 1.21753e-49 1.19847e-49 1.18044e-49 1.16396e-49 1.14958e-49 1.13786e-49 1.12926e-49 1.1241e-49 1.12253e-49 1.12449e-49 1.12967e-49 1.1376e-49 1.14763e-49 1.15903e-49 1.17102e-49 1.1829e-49 1.19404e-49 1.20399e-49 1.21248e-49 1.21941e-49 1.22488e-49 1.22909e-49 1.23233e-49 1.2349e-49 1.23703e-49 1.23887e-49 1.24041e-49 1.24145e-49 1.24161e-49 1.24034e-49 1.23696e-49 1.23066e-49 1.22062e-49 1.20602e-49 1.18614e-49 1.16039e-49 1.12837e-49 1.08992e-49 1.04508e-49 9.94202e-50 9.37829e-50 8.76746e-50 8.11916e-50 7.44444e-50 6.75521e-50 6.06374e-50 5.3821e-50 4.72163e-50 4.09247e-50 3.5032e-50 2.9605e-50 2.46906e-50 2.03151e-50 1.64849e-50 1.3189e-50 1.04009e-50 8.08289e-51 6.18867e-51 4.66746e-51 3.46691e-51 2.53584e-51 1.82627e-51 1.29489e-51 9.03827e-52 6.21016e-52 4.20017e-52 2.7962e-52 1.83234e-52 1.1819e-52 7.50425e-53 4.69026e-53 2.88583e-53 1.74804e-53 1.04248e-53 6.12146e-54 3.5395e-54 2.01544e-54 1.13025e-54 6.24312e-55 3.39698e-55 1.82094e-55 9.61731e-56 5.00515e-56 2.56705e-56 1.29764e-56 6.46588e-57 3.17619e-57 1.5383e-57 7.34656e-58 3.46008e-58 1.60731e-58 7.3651e-59 3.32945e-59 1.48502e-59 6.53591e-60 2.83867e-60 1.21626e-60 5.12824e-61 2.09426e-61 7.42285e-62 0 
0 4.09285e-83 1.69402e-82 6.55524e-82 2.50528e-81 9.48801e-81 3.56131e-80 1.32477e-79 4.88351e-79 1.78385e-78 6.45638e-78 2.31522e-77 8.22499e-77 2.8946e-76 1.00906e-75 3.4841e-75 1.19145e-74 4.03492e-74 1.35313e-73 4.49314e-73 1.47718e-72 4.8079e-72 1.54909e-71 4.94041e-71 1.55946e-70 4.87166e-70 1.50602e-69 4.60674e-69 1.39421e-68 4.17444e-68 1.2364e-67 3.62217e-67 1.04951e-66 3.00727e-66 8.52083e-66 2.3871e-65 6.61142e-65 1.81013e-64 4.89858e-64 1.31018e-63 3.46293e-63 9.04404e-63 2.33367e-62 5.94874e-62 1.49786e-61 3.72502e-61 9.14841e-61 2.21857e-60 5.31199e-60 1.25559e-59 2.9295e-59 6.74589e-59 1.53296e-58 3.4373e-58 7.60401e-58 1.6594e-57 3.57181e-57 7.58225e-57 1.58718e-56 3.27577e-56 6.66511e-56 1.33675e-55 2.64231e-55 5.14701e-55 9.87884e-55 1.86802e-54 3.47957e-54 6.38386e-54 1.15346e-53 2.05222e-53 3.59502e-53 6.19983e-53 1.05247e-52 1.75851e-52 2.89157e-52 4.67881e-52 7.44911e-52 1.16681e-51 1.798e-51 2.72544e-51 4.06358e-51 5.9591e-51 8.59472e-51 1.21911e-50 1.70062e-50 2.33301e-50 3.14757e-50 4.17631e-50 5.4499e-50 6.99508e-50 8.83174e-50 1.09699e-49 1.3407e-49 1.61257e-49 1.90927e-49 2.22588e-49 2.5561e-49 2.89247e-49 3.22691e-49 3.5512e-49 3.85761e-49 4.13943e-49 4.39145e-49 4.61038e-49 4.79493e-49 4.94584e-49 5.06567e-49 5.15842e-49 5.2291e-49 5.28318e-49 5.32609e-49 5.3628e-49 5.39748e-49 5.43328e-49 5.47227e-49 5.51548e-49 5.56305e-49 5.61444e-49 5.66869e-49 5.72461e-49 5.78102e-49 5.83692e-49 5.89155e-49 5.94445e-49 5.99541e-49 6.04443e-49 6.09163e-49 6.1371e-49 6.1808e-49 6.22252e-49 6.26172e-49 6.2976e-49 6.32909e-49 6.35487e-49 6.37355e-49 6.38374e-49 6.3842e-49 6.37399e-49 6.35259e-49 6.31995e-49 6.27652e-49 6.22321e-49 6.16135e-49 6.09249e-49 6.01829e-49 5.94036e-49 5.86008e-49 5.77853e-49 5.69641e-49 5.61407e-49 5.53157e-49 5.44881e-49 5.3657e-49 5.28233e-49 5.19913e-49 5.11698e-49 5.03724e-49 4.96178e-49 4.89277e-49 4.83259e-49 4.78351e-49 4.74749e-49 4.72591e-49 4.71937e-49 4.72758e-49 4.74933e-49 4.78259e-49 4.82465e-49 4.87242e-49 4.9227e-49 4.97246e-49 5.01912e-49 5.06077e-49 5.09627e-49 5.12526e-49 5.14811e-49 5.16568e-49 5.1792e-49 5.18991e-49 5.19884e-49 5.20659e-49 5.21311e-49 5.21759e-49 5.21845e-49 5.21338e-49 5.19948e-49 5.17341e-49 5.13169e-49 5.07091e-49 4.988e-49 4.88049e-49 4.74669e-49 4.58583e-49 4.39818e-49 4.18505e-49 3.94878e-49 3.69262e-49 3.42057e-49 3.13727e-49 2.8477e-49 2.55702e-49 2.2703e-49 1.99233e-49 1.72739e-49 1.4791e-49 1.25033e-49 1.04306e-49 8.5843e-50 6.96746e-50 5.57557e-50 4.39776e-50 3.41817e-50 2.61747e-50 1.97429e-50 1.46659e-50 1.07278e-50 7.72617e-51 5.47809e-51 3.8236e-51 2.62705e-51 1.77664e-51 1.18266e-51 7.749e-52 4.99761e-52 3.17263e-52 1.98259e-52 1.21962e-52 7.3861e-53 4.40389e-53 2.58535e-53 1.49451e-53 8.50775e-54 4.76984e-54 2.63397e-54 1.43277e-54 7.67808e-55 4.05397e-55 2.10917e-55 1.08142e-55 5.46485e-56 2.72217e-56 1.33676e-56 6.47218e-57 3.08996e-57 1.45484e-57 6.756e-58 3.09476e-58 1.39856e-58 6.23594e-59 2.7437e-59 1.19126e-59 5.10249e-60 2.15076e-60 8.78075e-61 3.11154e-61 0 
0 1.58116e-82 6.54515e-82 2.53307e-81 9.68222e-81 3.66738e-80 1.37675e-79 5.12215e-79 1.88849e-78 6.89942e-78 2.49757e-77 8.95769e-77 3.18287e-76 1.12035e-75 3.9063e-75 1.34904e-74 4.61422e-74 1.56297e-73 5.24261e-73 1.74123e-72 5.72584e-72 1.86407e-71 6.00744e-71 1.91639e-70 6.05071e-70 1.8907e-69 5.84643e-69 1.78885e-68 5.41542e-68 1.62191e-67 4.80522e-67 1.40817e-66 4.08139e-66 1.16985e-65 3.31573e-65 9.29202e-65 2.57442e-64 7.05088e-64 1.90878e-63 5.10705e-63 1.35033e-62 3.52792e-62 9.10662e-62 2.32225e-61 5.84954e-61 1.45529e-60 3.57552e-60 8.67442e-60 2.07779e-59 4.9133e-59 1.14683e-58 2.64197e-58 6.00626e-58 1.34734e-57 2.98186e-57 6.51005e-57 1.40188e-56 2.97722e-56 6.23488e-56 1.28738e-55 2.62054e-55 5.25803e-55 1.03979e-54 2.02631e-54 3.89083e-54 7.36041e-54 1.3716e-53 2.51748e-53 4.55051e-53 8.09947e-53 1.41939e-52 2.44876e-52 4.15849e-52 6.95062e-52 1.1433e-51 1.85056e-51 2.94718e-51 4.61775e-51 7.11767e-51 1.07918e-50 1.60941e-50 2.36063e-50 3.40534e-50 4.83106e-50 6.74006e-50 9.24741e-50 1.24771e-49 1.65559e-49 2.16052e-49 2.77306e-49 3.50103e-49 4.34834e-49 5.31385e-49 6.39057e-49 7.56517e-49 8.81806e-49 1.0124e-48 1.14535e-48 1.27743e-48 1.4054e-48 1.52617e-48 1.63711e-48 1.73617e-48 1.82206e-48 1.89428e-48 1.95316e-48 1.99972e-48 2.03559e-48 2.06274e-48 2.08337e-48 2.09963e-48 2.11349e-48 2.12661e-48 2.14022e-48 2.15515e-48 2.17179e-48 2.1902e-48 2.21015e-48 2.23127e-48 2.25307e-48 2.27509e-48 2.29693e-48 2.31828e-48 2.33896e-48 2.35888e-48 2.37806e-48 2.39653e-48 2.41432e-48 2.43142e-48 2.44776e-48 2.46311e-48 2.47717e-48 2.48951e-48 2.49962e-48 2.50695e-48 2.51096e-48 2.51115e-48 2.50717e-48 2.4988e-48 2.48602e-48 2.46901e-48 2.44814e-48 2.42392e-48 2.39695e-48 2.3679e-48 2.33739e-48 2.30597e-48 2.27405e-48 2.24192e-48 2.2097e-48 2.17742e-48 2.14504e-48 2.11252e-48 2.07988e-48 2.0473e-48 2.01512e-48 1.98388e-48 1.9543e-48 1.92725e-48 1.90365e-48 1.88441e-48 1.87028e-48 1.86183e-48 1.85927e-48 1.86251e-48 1.87106e-48 1.88413e-48 1.90065e-48 1.91941e-48 1.93915e-48 1.95867e-48 1.97697e-48 1.9933e-48 2.00721e-48 2.01855e-48 2.02749e-48 2.03435e-48 2.03963e-48 2.04382e-48 2.04732e-48 2.05038e-48 2.05298e-48 2.05479e-48 2.05521e-48 2.05333e-48 2.04801e-48 2.03793e-48 2.02172e-48 1.99804e-48 1.96569e-48 1.92367e-48 1.87132e-48 1.80832e-48 1.73477e-48 1.65117e-48 1.55842e-48 1.45779e-48 1.35084e-48 1.2394e-48 1.12541e-48 1.0109e-48 8.97878e-49 7.8823e-49 6.83655e-49 5.85593e-49 4.95182e-49 4.13223e-49 3.40179e-49 2.7618e-49 2.2106e-49 1.74399e-49 1.35577e-49 1.03834e-49 7.83284e-50 5.81908e-50 4.25678e-50 3.06583e-50 2.17376e-50 1.51719e-50 1.04234e-50 7.04864e-51 4.69155e-51 3.07357e-51 1.98194e-51 1.25796e-51 7.85948e-52 4.83379e-52 2.92668e-52 1.74456e-52 1.02388e-52 5.91707e-53 3.36737e-53 1.88732e-53 1.04187e-53 5.6655e-54 3.03505e-54 1.60193e-54 8.33149e-55 4.27022e-55 2.15714e-55 1.07413e-55 5.27274e-56 2.55194e-56 1.2179e-56 5.7321e-57 2.66089e-57 1.21844e-57 5.50422e-58 2.45333e-58 1.07903e-58 4.68322e-59 2.00522e-59 8.4493e-60 3.4484e-60 1.22166e-60 0 
0 6.03255e-82 2.49744e-81 9.66681e-81 3.69551e-80 1.39998e-79 5.25641e-79 1.95594e-78 7.21257e-78 2.6355e-77 9.54214e-77 3.42298e-76 1.21649e-75 4.28281e-75 1.49358e-74 5.15917e-74 1.765e-73 5.97989e-73 2.00627e-72 6.66498e-72 2.19223e-71 7.13867e-71 2.3012e-70 7.34278e-70 2.31899e-69 7.24825e-69 2.24194e-68 6.8617e-68 2.07787e-67 6.22504e-67 1.84486e-66 5.40807e-66 1.56796e-65 4.49573e-65 1.27466e-64 3.57335e-64 9.90371e-64 2.71342e-63 7.3483e-63 1.96681e-62 5.20232e-62 1.3597e-61 3.51116e-61 8.95725e-61 2.25717e-60 5.61784e-60 1.38083e-59 3.35138e-59 8.03103e-59 1.89989e-58 4.43654e-58 1.0225e-57 2.3256e-57 5.21917e-57 1.15561e-56 2.52408e-56 5.43786e-56 1.15539e-55 2.42072e-55 5.00061e-55 1.01837e-54 2.04427e-54 4.04445e-54 7.88525e-54 1.51478e-53 2.86683e-53 5.34466e-53 9.814e-53 1.7747e-52 3.16012e-52 5.54023e-52 9.5619e-52 1.62443e-51 2.71614e-51 4.46936e-51 7.23662e-51 1.15287e-50 1.80692e-50 2.78593e-50 4.22514e-50 6.3026e-50 9.24652e-50 1.33412e-49 1.893e-49 2.6414e-49 3.62443e-49 4.89068e-49 6.48981e-49 8.4693e-49 1.08704e-48 1.37235e-48 1.70436e-48 2.08258e-48 2.50421e-48 2.96399e-48 3.45417e-48 3.96483e-48 4.48431e-48 5e-48 5.49913e-48 5.96968e-48 6.40132e-48 6.7861e-48 7.119e-48 7.39822e-48 7.62509e-48 7.80375e-48 7.94057e-48 8.04344e-48 8.12094e-48 8.18157e-48 8.23307e-48 8.28187e-48 8.33286e-48 8.3892e-48 8.45244e-48 8.52276e-48 8.59928e-48 8.68046e-48 8.76443e-48 8.84935e-48 8.93363e-48 9.01609e-48 9.09598e-48 9.17299e-48 9.24711e-48 9.31849e-48 9.38729e-48 9.45346e-48 9.51664e-48 9.57606e-48 9.6305e-48 9.67831e-48 9.7175e-48 9.74594e-48 9.76151e-48 9.76233e-48 9.74696e-48 9.71461e-48 9.66518e-48 9.59938e-48 9.5186e-48 9.42484e-48 9.3205e-48 9.20809e-48 9.09006e-48 8.96852e-48 8.84509e-48 8.72084e-48 8.59628e-48 8.47148e-48 8.34627e-48 8.22049e-48 8.09425e-48 7.96818e-48 7.84362e-48 7.72265e-48 7.60807e-48 7.50326e-48 7.4118e-48 7.33722e-48 7.28249e-48 7.24973e-48 7.23988e-48 7.25249e-48 7.28572e-48 7.33647e-48 7.40061e-48 7.47343e-48 7.55e-48 7.62572e-48 7.69666e-48 7.75992e-48 7.81375e-48 7.85764e-48 7.89214e-48 7.91865e-48 7.93902e-48 7.95519e-48 7.96878e-48 7.98071e-48 7.99093e-48 7.99822e-48 8.00021e-48 7.99336e-48 7.97324e-48 7.93477e-48 7.87261e-48 7.78152e-48 7.65678e-48 7.49456e-48 7.29218e-48 7.04841e-48 6.76354e-48 6.43949e-48 6.0797e-48 5.68904e-48 5.27356e-48 4.84026e-48 4.39676e-48 3.95092e-48 3.51055e-48 3.08303e-48 2.675e-48 2.29214e-48 1.93892e-48 1.61853e-48 1.33283e-48 1.08238e-48 8.66579e-49 6.83812e-49 5.31691e-49 4.07268e-49 3.07266e-49 2.28291e-49 1.6701e-49 1.20287e-49 8.52868e-50 5.95244e-50 4.08918e-50 2.76497e-50 1.84013e-50 1.20535e-50 7.77116e-51 4.93151e-51 3.08044e-51 1.89411e-51 1.14652e-51 6.83241e-52 4.00881e-52 2.31601e-52 1.31762e-52 7.38247e-53 4.07402e-53 2.21461e-53 1.18596e-53 6.25736e-54 3.25319e-54 1.66676e-54 8.4166e-55 4.18937e-55 2.05571e-55 9.94554e-56 4.74462e-56 2.2322e-56 1.0358e-56 4.74115e-57 2.14096e-57 9.53895e-58 4.19381e-58 1.81952e-58 7.78772e-59 3.28026e-59 1.33831e-59 4.73996e-60 0 
0 2.28064e-81 9.44293e-81 3.65558e-80 1.3977e-79 5.29577e-79 1.98869e-78 7.40127e-78 2.72971e-77 9.97625e-77 3.61268e-76 1.2962e-75 4.60746e-75 1.62244e-74 5.65927e-74 1.95526e-73 6.69062e-73 2.26732e-72 7.60871e-72 2.52828e-71 8.31804e-71 2.70933e-70 8.73599e-70 2.78827e-69 8.80834e-69 2.75392e-68 8.52054e-68 2.60858e-67 7.90173e-67 2.368e-66 7.02008e-66 2.05855e-65 5.97035e-65 1.71243e-64 4.85689e-64 1.36205e-63 3.77635e-63 1.03503e-62 2.80405e-62 7.50807e-62 1.9867e-61 5.19458e-61 1.34195e-60 3.42482e-60 8.63393e-60 2.1498e-59 5.28634e-59 1.2836e-58 3.07729e-58 7.28317e-58 1.7015e-57 3.92329e-57 8.92732e-57 2.00442e-56 4.44018e-56 9.70286e-56 2.09137e-55 4.44565e-55 9.31879e-55 1.92595e-54 3.92406e-54 7.88086e-54 1.55992e-53 3.04272e-53 5.84789e-53 1.10727e-52 2.06524e-52 3.79397e-52 6.86383e-52 1.22274e-51 2.14458e-51 3.70288e-51 6.29321e-51 1.05267e-50 1.73279e-50 2.80668e-50 4.47286e-50 7.01265e-50 1.08154e-49 1.64073e-49 2.44808e-49 3.59239e-49 5.18428e-49 7.35734e-49 1.02676e-48 1.40905e-48 1.90149e-48 2.52337e-48 3.29312e-48 4.2267e-48 5.33584e-48 6.62621e-48 8.09576e-48 9.73342e-48 1.15184e-47 1.34205e-47 1.54008e-47 1.74139e-47 1.94105e-47 2.13411e-47 2.31589e-47 2.4824e-47 2.63056e-47 2.75847e-47 2.86545e-47 2.95206e-47 3.01995e-47 3.07162e-47 3.11016e-47 3.13894e-47 3.16126e-47 3.18012e-47 3.19805e-47 3.21692e-47 3.23795e-47 3.26174e-47 3.28834e-47 3.31741e-47 3.34834e-47 3.3804e-47 3.41286e-47 3.4451e-47 3.47667e-47 3.50727e-47 3.53677e-47 3.56517e-47 3.59252e-47 3.6189e-47 3.64427e-47 3.6685e-47 3.69131e-47 3.71221e-47 3.73057e-47 3.74563e-47 3.75657e-47 3.76257e-47 3.76291e-47 3.75703e-47 3.74464e-47 3.72568e-47 3.70044e-47 3.66945e-47 3.63347e-47 3.59344e-47 3.55032e-47 3.50505e-47 3.45844e-47 3.41112e-47 3.36349e-47 3.31574e-47 3.26791e-47 3.21991e-47 3.17169e-47 3.12328e-47 3.07491e-47 3.02711e-47 2.98067e-47 2.93667e-47 2.89641e-47 2.86127e-47 2.83261e-47 2.81158e-47 2.799e-47 2.79524e-47 2.80011e-47 2.81291e-47 2.83246e-47 2.85715e-47 2.88517e-47 2.91462e-47 2.94374e-47 2.971e-47 2.9953e-47 3.01596e-47 3.03278e-47 3.046e-47 3.05614e-47 3.06393e-47 3.07012e-47 3.07535e-47 3.07996e-47 3.08396e-47 3.08686e-47 3.08777e-47 3.08531e-47 3.0778e-47 3.06326e-47 3.03964e-47 3.00492e-47 2.95726e-47 2.89519e-47 2.81765e-47 2.72415e-47 2.61479e-47 2.49027e-47 2.35191e-47 2.20156e-47 2.04153e-47 1.87451e-47 1.70343e-47 1.53131e-47 1.36118e-47 1.19588e-47 1.03802e-47 8.89786e-48 7.5294e-48 6.28737e-48 5.17916e-48 4.20717e-48 3.36921e-48 2.65922e-48 2.06805e-48 1.58435e-48 1.19548e-48 8.88293e-49 6.49881e-49 4.68083e-49 3.3188e-49 2.31621e-49 1.59107e-49 1.07572e-49 7.15818e-50 4.68812e-50 3.022e-50 1.91735e-50 1.19739e-50 7.36072e-51 4.45433e-51 2.6537e-51 1.55655e-51 8.98984e-52 5.11279e-52 2.86367e-52 1.57976e-52 8.58438e-53 4.59538e-53 2.4237e-53 1.25959e-53 6.45099e-54 3.25625e-54 1.62016e-54 7.94687e-55 3.84316e-55 1.83268e-55 8.61869e-56 3.99769e-56 1.82912e-56 8.2564e-57 3.67714e-57 1.61602e-57 7.00843e-58 2.99851e-58 1.26252e-58 5.1491e-59 1.82318e-59 0 
0 8.54505e-81 3.5385e-80 1.37004e-79 5.23914e-79 1.98539e-78 7.45686e-78 2.77569e-77 1.0239e-76 3.74274e-76 1.35561e-75 4.86477e-75 1.72958e-74 6.09171e-74 2.12532e-73 7.34454e-73 2.51377e-72 8.52071e-72 2.86009e-71 9.50608e-71 3.1283e-70 1.01921e-69 3.28724e-69 1.04948e-68 3.31632e-68 1.03715e-67 3.20986e-67 9.83006e-67 2.97859e-66 8.92914e-66 2.64797e-65 7.76746e-65 2.25354e-64 6.46594e-64 1.83457e-63 5.14669e-63 1.42748e-62 3.91395e-62 1.06076e-61 2.8414e-61 7.52163e-61 1.96747e-60 5.08482e-60 1.29826e-59 3.27432e-59 8.15643e-59 2.00655e-58 4.8744e-58 1.16912e-57 2.76829e-57 6.47033e-57 1.49262e-56 3.39804e-56 7.63318e-56 1.69172e-55 3.69861e-55 7.97594e-55 1.69629e-54 3.55746e-54 7.35598e-54 1.4995e-53 3.01299e-53 5.96678e-53 1.16443e-52 2.23904e-52 4.24156e-52 7.91497e-52 1.45471e-51 2.63299e-51 4.6926e-51 8.23408e-51 1.42233e-50 2.41832e-50 4.04677e-50 6.66397e-50 1.07979e-49 1.72142e-49 2.69979e-49 4.16512e-49 6.32041e-49 9.433e-49 1.38456e-48 1.99853e-48 2.83676e-48 3.95948e-48 5.43437e-48 7.33427e-48 9.73353e-48 1.2703e-47 1.63041e-47 2.05816e-47 2.55568e-47 3.12211e-47 3.7531e-47 4.44055e-47 5.17268e-47 5.93441e-47 6.70817e-47 7.47493e-47 8.2155e-47 8.91194e-47 9.54886e-47 1.01145e-46 1.06017e-46 1.1008e-46 1.13356e-46 1.15911e-46 1.17842e-46 1.19271e-46 1.20326e-46 1.21136e-46 1.21818e-46 1.22467e-46 1.23157e-46 1.23933e-46 1.24819e-46 1.25816e-46 1.2691e-46 1.28078e-46 1.29291e-46 1.30521e-46 1.31744e-46 1.32942e-46 1.34104e-46 1.35224e-46 1.36303e-46 1.37343e-46 1.38345e-46 1.3931e-46 1.40232e-46 1.411e-46 1.41895e-46 1.42594e-46 1.43168e-46 1.43586e-46 1.43815e-46 1.43829e-46 1.43606e-46 1.43135e-46 1.42414e-46 1.41454e-46 1.40275e-46 1.38907e-46 1.37384e-46 1.35743e-46 1.34022e-46 1.32249e-46 1.3045e-46 1.2864e-46 1.26826e-46 1.25008e-46 1.23183e-46 1.2135e-46 1.19509e-46 1.1767e-46 1.15851e-46 1.14083e-46 1.12407e-46 1.10874e-46 1.09535e-46 1.08443e-46 1.07642e-46 1.07163e-46 1.0702e-46 1.07207e-46 1.07696e-46 1.08443e-46 1.09385e-46 1.10454e-46 1.11578e-46 1.12688e-46 1.13727e-46 1.14652e-46 1.15439e-46 1.16078e-46 1.1658e-46 1.16964e-46 1.1726e-46 1.17495e-46 1.17694e-46 1.17871e-46 1.18026e-46 1.18141e-46 1.18181e-46 1.18095e-46 1.17817e-46 1.17273e-46 1.16384e-46 1.15073e-46 1.13268e-46 1.10914e-46 1.07969e-46 1.04414e-46 1.00251e-46 9.5508e-47 9.02326e-47 8.44952e-47 7.83835e-47 7.19997e-47 6.54552e-47 5.88661e-47 5.23478e-47 4.60101e-47 3.99525e-47 3.42605e-47 2.90022e-47 2.42266e-47 1.99629e-47 1.62212e-47 1.29938e-47 1.0258e-47 7.97918e-48 6.11392e-48 4.61387e-48 3.42862e-48 2.50855e-48 1.80685e-48 1.28108e-48 8.94031e-49 6.14089e-49 4.15141e-49 2.76211e-49 1.8087e-49 1.16568e-49 7.39425e-50 4.61665e-50 2.83727e-50 1.71649e-50 1.02231e-50 5.99458e-51 3.46103e-51 1.96772e-51 1.10173e-51 6.07554e-52 3.30019e-52 1.76598e-52 9.31048e-53 4.83671e-53 2.47611e-53 1.24935e-53 6.21362e-54 3.04652e-54 1.4727e-54 7.01988e-55 3.29992e-55 1.52999e-55 6.99745e-56 3.15725e-56 1.40555e-56 6.17453e-57 2.67671e-57 1.14475e-57 4.81805e-58 1.96429e-58 6.95314e-59 0 
0 3.17284e-80 1.31405e-79 5.08854e-79 1.9462e-78 7.37644e-78 2.77098e-77 1.03163e-76 3.80622e-76 1.39158e-75 5.04126e-75 1.80949e-74 6.43465e-74 2.26682e-73 7.91042e-73 2.73426e-72 9.36059e-72 3.17364e-71 1.06554e-70 3.54245e-70 1.16607e-69 3.80013e-69 1.22599e-68 3.91521e-68 1.23756e-67 3.8715e-67 1.19856e-66 3.67169e-66 1.11291e-65 3.33737e-65 9.90046e-65 2.90517e-64 8.43167e-64 2.42012e-63 6.8691e-63 1.92778e-62 5.34895e-62 1.46718e-61 3.97798e-61 1.06599e-60 2.82303e-60 7.38749e-60 1.91008e-59 4.87897e-59 1.23106e-58 3.06801e-58 7.55105e-58 1.83519e-57 4.40375e-57 1.04324e-56 2.43954e-56 5.63047e-56 1.28244e-55 2.88225e-55 6.39104e-55 1.39798e-54 3.01624e-54 6.4181e-54 1.34669e-53 2.78606e-53 5.68224e-53 1.14234e-52 2.26338e-52 4.41928e-52 8.50196e-52 1.61139e-51 3.00843e-51 5.53195e-51 1.00175e-50 1.7862e-50 3.13567e-50 5.41888e-50 9.21751e-50 1.54309e-49 2.5421e-49 4.12068e-49 6.57167e-49 1.03102e-48 1.59114e-48 2.41523e-48 3.60565e-48 5.29365e-48 7.64275e-48 1.08504e-47 1.51472e-47 2.07921e-47 2.8064e-47 3.72468e-47 4.86113e-47 6.23911e-47 7.8756e-47 9.77856e-47 1.19444e-46 1.43561e-46 1.69823e-46 1.97776e-46 2.2684e-46 2.56338e-46 2.85541e-46 3.13715e-46 3.40174e-46 3.64332e-46 3.85744e-46 4.04138e-46 4.19427e-46 4.31705e-46 4.41226e-46 4.48371e-46 4.53603e-46 4.57423e-46 4.60323e-46 4.62748e-46 4.65066e-46 4.67554e-46 4.70387e-46 4.73651e-46 4.77351e-46 4.81432e-46 4.85801e-46 4.9035e-46 4.9497e-46 4.99569e-46 5.04077e-46 5.0845e-46 5.12669e-46 5.16733e-46 5.2065e-46 5.24427e-46 5.28064e-46 5.3154e-46 5.34813e-46 5.37816e-46 5.40457e-46 5.42626e-46 5.44204e-46 5.45074e-46 5.45131e-46 5.44294e-46 5.4252e-46 5.39803e-46 5.36181e-46 5.31734e-46 5.26571e-46 5.20826e-46 5.1464e-46 5.08148e-46 5.01466e-46 4.94685e-46 4.87863e-46 4.81026e-46 4.74176e-46 4.67302e-46 4.60392e-46 4.53452e-46 4.46514e-46 4.39651e-46 4.32978e-46 4.26652e-46 4.20859e-46 4.15803e-46 4.11677e-46 4.08651e-46 4.06843e-46 4.06306e-46 4.07016e-46 4.0887e-46 4.11696e-46 4.15264e-46 4.1931e-46 4.2356e-46 4.27757e-46 4.31683e-46 4.35177e-46 4.38143e-46 4.40554e-46 4.42442e-46 4.43888e-46 4.44999e-46 4.45884e-46 4.46637e-46 4.47312e-46 4.47907e-46 4.48357e-46 4.48532e-46 4.48235e-46 4.47221e-46 4.45206e-46 4.41891e-46 4.36981e-46 4.30211e-46 4.2136e-46 4.10274e-46 3.96875e-46 3.8117e-46 3.63256e-46 3.43315e-46 3.21608e-46 2.98465e-46 2.74272e-46 2.49448e-46 2.24435e-46 1.99669e-46 1.75571e-46 1.5252e-46 1.30844e-46 1.10805e-46 9.25928e-47 7.63229e-47 6.20365e-47 4.97073e-47 3.92512e-47 3.05376e-47 2.34029e-47 1.76633e-47 1.31271e-47 9.60496e-48 6.91837e-48 4.90515e-48 3.42301e-48 2.351e-48 1.58916e-48 1.05719e-48 6.92155e-49 4.45996e-49 2.82845e-49 1.76552e-49 1.08475e-49 6.56064e-50 3.9062e-50 2.28975e-50 1.32156e-50 7.51086e-51 4.20379e-51 2.31732e-51 1.25826e-51 6.73044e-52 3.54694e-52 1.84184e-52 9.42519e-53 4.75357e-53 2.36316e-53 1.15815e-53 5.59614e-54 2.66634e-54 1.25286e-54 5.80628e-55 2.65437e-55 1.19713e-55 5.32714e-56 2.33919e-56 1.01363e-56 4.33318e-57 1.82301e-57 7.42952e-58 2.6291e-58 0 
0 1.16742e-79 4.83561e-79 1.87285e-78 7.16425e-78 2.71584e-77 1.0204e-76 3.79963e-76 1.40214e-75 5.12735e-75 1.85786e-74 6.66991e-74 2.37238e-73 8.35936e-73 2.9178e-72 1.00878e-71 3.45436e-71 1.17147e-70 3.93419e-70 1.30829e-69 4.3077e-69 1.40423e-68 4.53162e-68 1.4476e-67 4.5771e-67 1.43232e-66 4.43566e-66 1.35927e-65 4.12142e-65 1.23634e-64 3.66895e-64 1.077e-63 3.1269e-63 8.97843e-63 2.54935e-62 7.15744e-62 1.98674e-61 5.45173e-61 1.47874e-60 3.96432e-60 1.05031e-59 2.74972e-59 7.11272e-59 1.81765e-58 4.58842e-58 1.14404e-57 2.81708e-57 6.84986e-57 1.64451e-56 3.89773e-56 9.11916e-56 2.10577e-55 4.79872e-55 1.07905e-54 2.39392e-54 5.23922e-54 1.13099e-53 2.40785e-53 5.055e-53 1.04635e-52 2.13518e-52 4.29478e-52 8.51401e-52 1.66325e-51 3.20149e-51 6.07099e-51 1.13402e-50 2.08632e-50 3.77989e-50 6.74313e-50 1.18433e-49 2.04764e-49 3.48461e-49 5.8361e-49 9.6185e-49 1.55977e-48 2.48848e-48 3.90557e-48 6.02938e-48 9.15502e-48 1.36713e-47 2.00769e-47 2.89929e-47 4.11695e-47 5.74824e-47 7.89154e-47 1.06526e-46 1.41391e-46 1.84537e-46 2.36845e-46 2.98953e-46 3.71155e-46 4.53303e-46 5.44739e-46 6.44257e-46 7.50116e-46 8.60102e-46 9.71638e-46 1.08195e-45 1.18824e-45 1.28791e-45 1.37876e-45 1.45911e-45 1.52795e-45 1.58497e-45 1.63054e-45 1.66567e-45 1.69182e-45 1.71075e-45 1.72439e-45 1.73461e-45 1.74309e-45 1.75124e-45 1.76008e-45 1.7703e-45 1.7822e-45 1.79579e-45 1.81087e-45 1.82707e-45 1.84397e-45 1.86118e-45 1.87832e-45 1.89513e-45 1.91145e-45 1.9272e-45 1.94237e-45 1.957e-45 1.97112e-45 1.98471e-45 1.9977e-45 2.00995e-45 2.02119e-45 2.03107e-45 2.0392e-45 2.04512e-45 2.04839e-45 2.04862e-45 2.0455e-45 2.03888e-45 2.02872e-45 2.01518e-45 1.99855e-45 1.97924e-45 1.95775e-45 1.93462e-45 1.91035e-45 1.88538e-45 1.86004e-45 1.83455e-45 1.809e-45 1.78342e-45 1.75773e-45 1.73192e-45 1.70597e-45 1.68003e-45 1.65436e-45 1.62939e-45 1.60571e-45 1.58402e-45 1.56507e-45 1.54962e-45 1.53829e-45 1.53152e-45 1.52952e-45 1.53219e-45 1.53916e-45 1.54977e-45 1.56317e-45 1.57835e-45 1.59429e-45 1.61002e-45 1.62473e-45 1.63781e-45 1.6489e-45 1.65791e-45 1.66496e-45 1.67035e-45 1.67448e-45 1.67779e-45 1.68061e-45 1.68316e-45 1.68543e-45 1.68718e-45 1.68793e-45 1.68693e-45 1.68327e-45 1.67588e-45 1.66364e-45 1.64543e-45 1.62026e-45 1.58729e-45 1.54593e-45 1.49587e-45 1.43713e-45 1.37007e-45 1.29534e-45 1.21392e-45 1.12704e-45 1.03614e-45 9.42779e-46 8.48625e-46 7.55325e-46 6.64462e-46 5.77476e-46 4.95614e-46 4.19878e-46 3.50999e-46 2.89424e-46 2.35324e-46 1.88609e-46 1.48971e-46 1.15925e-46 8.88558e-47 6.70727e-47 4.98521e-47 3.64784e-47 2.62756e-47 1.86292e-47 1.29995e-47 8.92757e-48 6.0339e-48 4.01343e-48 2.62718e-48 1.69249e-48 1.07311e-48 6.69662e-49 4.1133e-49 2.487e-49 1.48028e-49 8.67422e-50 5.00466e-50 2.84326e-50 1.59075e-50 8.76546e-51 4.75755e-51 2.54376e-51 1.33999e-51 6.95526e-52 3.55764e-52 1.7935e-52 8.91215e-53 4.36576e-53 2.10857e-53 1.0042e-53 4.7164e-54 2.1848e-54 9.98344e-55 4.50057e-55 2.00183e-55 8.7863e-56 3.80566e-56 1.62618e-56 6.83863e-57 2.78593e-57 9.8556e-58 0 
0 4.25621e-79 1.76323e-78 6.83018e-78 2.61322e-77 9.90802e-77 3.72333e-76 1.38672e-75 5.11829e-75 1.87203e-74 6.78461e-74 2.43627e-73 8.66737e-73 3.05476e-72 1.0665e-71 3.68817e-71 1.26325e-70 4.28516e-70 1.43948e-69 4.78823e-69 1.57702e-68 5.14229e-68 1.65997e-67 5.30429e-67 1.67766e-66 5.25161e-66 1.62687e-65 4.9871e-65 1.51265e-64 4.53924e-64 1.34754e-63 3.95709e-63 1.14932e-62 3.30137e-62 9.37767e-62 2.63389e-61 7.31409e-61 2.00787e-60 5.44854e-60 1.46132e-59 3.87335e-59 1.01451e-58 2.62545e-58 6.71246e-58 1.69528e-57 4.22894e-57 1.04184e-56 2.53454e-56 6.08799e-56 1.44368e-55 3.3794e-55 7.80769e-55 1.78019e-54 4.00513e-54 8.8903e-54 1.94675e-53 4.20474e-53 8.95669e-53 1.88139e-52 3.89647e-52 7.95555e-52 1.60109e-51 3.17576e-51 6.20738e-51 1.19547e-50 2.2682e-50 4.23911e-50 7.80303e-50 1.41445e-49 2.52459e-49 4.43626e-49 7.67381e-49 1.30652e-48 2.18919e-48 3.60961e-48 5.85593e-48 9.34639e-48 1.46744e-47 2.26622e-47 3.44217e-47 5.1418e-47 7.55301e-47 1.09099e-46 1.54952e-46 2.16388e-46 2.97113e-46 4.01108e-46 5.32425e-46 6.94914e-46 8.9188e-46 1.1257e-45 1.39745e-45 1.70651e-45 2.05037e-45 2.42442e-45 2.82205e-45 3.23486e-45 3.65312e-45 4.06632e-45 4.46397e-45 4.8363e-45 5.17501e-45 5.47388e-45 5.72919e-45 5.93987e-45 6.10745e-45 6.23575e-45 6.33036e-45 6.39803e-45 6.44601e-45 6.48138e-45 6.51049e-45 6.53859e-45 6.56959e-45 6.60596e-45 6.64886e-45 6.6983e-45 6.75345e-45 6.81296e-45 6.87524e-45 6.93872e-45 7.00204e-45 7.0642e-45 7.12457e-45 7.18285e-45 7.23902e-45 7.29318e-45 7.34545e-45 7.39581e-45 7.44399e-45 7.4894e-45 7.53109e-45 7.5678e-45 7.59799e-45 7.62001e-45 7.6322e-45 7.63311e-45 7.62161e-45 7.59708e-45 7.55944e-45 7.50924e-45 7.44757e-45 7.37598e-45 7.29632e-45 7.21057e-45 7.1206e-45 7.02806e-45 6.93419e-45 6.83977e-45 6.74518e-45 6.65042e-45 6.55531e-45 6.45967e-45 6.36354e-45 6.26737e-45 6.17216e-45 6.07952e-45 5.99163e-45 5.91111e-45 5.84077e-45 5.78338e-45 5.7413e-45 5.71618e-45 5.70879e-45 5.71879e-45 5.74475e-45 5.78426e-45 5.8341e-45 5.89057e-45 5.94984e-45 6.00832e-45 6.06296e-45 6.11151e-45 6.15264e-45 6.186e-45 6.21206e-45 6.23198e-45 6.24726e-45 6.25948e-45 6.26997e-45 6.27951e-45 6.2881e-45 6.29487e-45 6.298e-45 6.29475e-45 6.28171e-45 6.2549e-45 6.21012e-45 6.14326e-45 6.05052e-45 5.92881e-45 5.77587e-45 5.59053e-45 5.37281e-45 5.12394e-45 4.84637e-45 4.54364e-45 4.2203e-45 3.88165e-45 3.53355e-45 3.18216e-45 2.83364e-45 2.49392e-45 2.16843e-45 1.86185e-45 1.578e-45 1.31965e-45 1.08854e-45 8.85357e-46 7.0981e-46 5.60781e-46 4.36477e-46 3.34617e-46 2.5262e-46 1.87779e-46 1.37412e-46 9.89805e-47 7.01749e-47 4.89656e-47 3.36246e-47 2.2723e-47 1.51118e-47 9.89025e-48 6.37015e-48 4.03793e-48 2.51915e-48 1.5469e-48 9.34997e-49 5.5633e-49 3.25886e-49 1.87953e-49 1.06739e-49 5.96946e-50 3.28798e-50 1.78383e-50 9.53366e-51 5.0199e-51 2.60443e-51 1.33157e-51 6.70974e-52 3.33263e-52 1.63179e-52 7.87753e-53 3.7499e-53 1.76038e-53 8.15093e-54 3.72283e-54 1.67749e-54 7.45794e-55 3.2719e-55 1.41653e-55 6.05023e-56 2.54321e-56 1.03564e-56 3.66255e-57 0 