# vtk DataFile Version 3.0
Gray-Scott Simulation Output
ASCII
DATASET STRUCTURED_POINTS
DIMENSIONS 256 256 1
SPACING 1.0 1.0 1.0
ORIGIN 0 0 0
POINT_DATA 65536
SCALARS u double
LOOKUP_TABLE default
0 0 0 0 0 0 0 0 0 0 0 0 0 0 0 0 0 0 0 0 0 0 0 0 0 0 0 0 0 0 0 0 0 0 0 0 0 0 0 0 0 0 0 0 0 0 0 0 0 0 0 0 0 0 0 0 0 0 0 0 0 0 0 0 0 0 0 0 0 0 0 0 0 0 0 0 0 0 0 0 0 0 0 0 0 0 0 0 0 0 0 0 0 0 0 0 0 0 0 0 0 0 0 0 0 0 0 0 0 0 0 0 0 0 0 0 0 0 0 0 0 0 0 0 0 0 0 0 0 0 0 0 0 0 0 0 0 0 0 0 0 0 0 0 0 0 0 0 0 0 0 0 0 0 0 0 0 0 0 0 0 0 0 0 0 0 0 0 0 0 0 0 0 0 0 0 0 0 0 0 0 0 0 0 0 0 0 0 0 0 0 0 0 0 0 0 0 0 0 0 0 0 0 0 0 0 0 0 0 0 0 0 0 0 0 0 0 0 0 0 0 0 0 0 0 0 0 0 0 0 0 0 0 0 0 0 0 0 0 0 0 0 0 0 0 0 0 0 0 0 0 0 0 0 0 0 
0 2.64896e-138 2.83348e-137 2.97419e-136 3.08918e-135 3.17491e-134 3.22842e-133 3.24769e-132 3.23177e-131 3.18082e-130 3.09617e-129 2.98021e-128 2.83635e-127 2.66876e-126 2.48226e-125 2.28202e-124 2.07334e-123 1.86143e-122 1.65118e-121 1.44695e-120 1.25247e-119 1.07071e-118 9.03877e-118 7.53385e-117 6.19911e-116 5.03479e-115 4.03557e-114 3.19177e-113 2.49053e-112 1.91695e-111 1.45518e-110 1.08926e-109 8.03858e-109 5.84761e-108 4.19225e-107 2.96143e-106 2.06089e-105 1.4126e-104 9.53461e-104 6.33594e-103 4.14428e-102 2.66757e-101 1.68932e-100 1.05228e-99 6.44563e-99 3.88154e-98 2.29738e-97 1.33609e-96 7.63284e-96 4.28217e-95 2.35852e-94 1.2749e-93 6.76149e-93 3.51716e-92 1.79383e-91 8.9672e-91 4.39202e-90 2.10689e-89 9.89518e-89 4.54817e-88 2.04504e-87 8.99158e-87 3.8641e-86 1.62234e-85 6.65137e-85 2.66162e-84 1.03903e-83 3.95482e-83 1.46694e-82 5.2996e-82 1.86366e-81 6.37561e-81 2.12053e-80 6.85259e-80 2.15015e-79 6.54628e-79 1.93253e-78 5.52786e-78 1.53097e-77 4.1023e-77 1.0627e-76 2.65938e-76 6.42387e-76 1.49664e-75 3.36047e-75 7.26628e-75 1.5119e-74 3.02492e-74 5.81546e-74 1.07363e-73 1.90228e-73 3.23314e-73 5.26905e-73 8.23141e-73 1.23249e-72 1.76871e-72 2.43318e-72 3.20996e-72 4.06346e-72 4.94024e-72 5.77544e-72 6.50312e-72 7.06819e-72 7.43701e-72 7.60379e-72 7.59101e-72 7.44383e-72 7.22036e-72 6.98029e-72 6.77509e-72 6.64158e-72 6.59962e-72 6.65321e-72 6.79355e-72 7.0027e-72 7.25702e-72 7.53031e-72 7.79695e-72 8.03517e-72 8.23011e-72 8.37565e-72 8.47448e-72 8.53598e-72 8.57276e-72 8.59721e-72 8.61919e-72 8.64564e-72 8.68163e-72 8.73207e-72 8.80276e-72 8.9001e-72 9.02925e-72 9.1912e-72 9.37988e-72 9.58056e-72 9.77045e-72 9.92209e-72 1.00087e-71 1.001e-71 9.917e-72 9.73384e-72 9.4765e-72 9.16914e-72 8.83925e-72 8.51334e-72 8.21371e-72 7.95671e-72 7.75202e-72 7.60236e-72 7.50359e-72 7.44491e-72 7.40957e-72 7.37614e-72 7.32076e-72 7.22039e-72 7.05714e-72 6.82275e-72 6.52233e-72 6.17587e-72 5.81647e-72 5.48547e-72 5.22521e-72 5.07129e-72 5.04605e-72 5.1546e-72 5.38403e-72 5.70554e-72 6.07909e-72 6.45962e-72 6.80382e-72 7.07636e-72 7.25445e-72 7.3301e-72 7.30973e-72 7.21175e-72 7.06257e-72 6.89217e-72 6.72983e-72 6.6005e-72 6.52239e-72 6.50574e-72 6.55286e-72 6.65908e-72 6.81406e-72 7.00276e-72 7.20592e-72 7.40008e-72 7.55816e-72 7.65129e-72 7.65235e-72 7.54063e-72 7.30614e-72 6.95184e-72 6.49287e-72 5.95299e-72 5.35966e-72 4.73947e-72 4.11529e-72 3.50556e-72 2.92487e-72 2.38511e-72 1.89616e-72 1.46579e-72 1.09904e-72 7.97478e-73 5.58932e-73 3.778e-73 2.45986e-73 1.54147e-73 9.29162e-74 5.38582e-74 3.00178e-74 1.60886e-74 8.29431e-75 4.11458e-75 1.96498e-75 9.03896e-76 4.00744e-76 1.7135e-76 7.07076e-77 2.81783e-77 1.08527e-77 4.04242e-78 1.45726e-78 5.08781e-79 1.72157e-79 5.64955e-80 1.79924e-80 5.56463e-81 1.67236e-81 4.88697e-82 1.3894e-82 3.84544e-83 1.03668e-83 2.72367e-84 6.97772e-85 1.74398e-85 4.25458e-86 1.0136e-86 2.35924e-87 5.36748e-88 1.19413e-88 2.59894e-89 5.53584e-90 1.15447e-90 2.3581e-91 4.71933e-92 9.25748e-93 1.78053e-93 3.3589e-94 6.21694e-95 1.12934e-95 2.01402e-96 3.52459e-97 5.89808e-98 0 
0 2.8327e-137 3.02886e-136 3.17803e-135 3.2996e-134 3.38985e-133 3.44564e-132 3.46486e-131 3.44654e-130 3.3909e-129 3.29939e-128 3.17461e-127 3.0202e-126 2.84067e-125 2.64115e-124 2.42717e-123 2.20439e-122 1.97835e-121 1.75424e-120 1.53669e-119 1.32965e-118 1.13627e-117 9.58871e-117 7.98929e-116 6.57147e-115 5.33527e-114 4.27488e-113 3.37983e-112 2.63632e-111 2.02845e-110 1.53927e-109 1.1518e-108 8.49716e-108 6.17905e-107 4.42834e-106 3.12713e-105 2.17546e-104 1.49063e-103 1.00579e-102 6.68143e-102 4.36881e-101 2.81117e-100 1.77968e-99 1.1082e-98 6.78602e-98 4.08522e-97 2.41717e-96 1.40531e-95 8.02586e-95 4.50129e-94 2.47845e-93 1.33933e-92 7.1011e-92 3.69274e-91 1.88283e-90 9.40946e-90 4.60734e-89 2.20957e-88 1.03746e-87 4.76725e-87 2.14298e-86 9.41978e-86 4.04709e-85 1.69874e-84 6.9629e-84 2.78561e-83 1.08718e-82 4.13715e-82 1.53423e-81 5.54149e-81 1.9483e-80 6.66382e-80 2.21594e-79 7.15954e-79 2.24605e-78 6.83699e-78 2.01801e-77 5.77138e-77 1.59815e-76 4.28168e-76 1.10901e-75 2.77488e-75 6.70198e-75 1.56124e-74 3.50512e-74 7.57823e-74 1.57665e-73 3.15417e-73 6.06344e-73 1.11932e-72 1.9831e-72 3.3703e-72 5.49229e-72 8.57973e-72 1.28459e-71 1.84342e-71 2.5359e-71 3.34541e-71 4.23489e-71 5.14866e-71 6.01918e-71 6.77774e-71 7.36696e-71 7.75181e-71 7.92623e-71 7.91361e-71 7.76099e-71 7.52882e-71 7.27927e-71 7.06591e-71 6.92709e-71 6.88347e-71 6.93924e-71 7.08525e-71 7.30286e-71 7.56747e-71 7.85184e-71 8.12932e-71 8.37728e-71 8.58024e-71 8.73186e-71 8.83492e-71 8.89915e-71 8.93769e-71 8.9634e-71 8.98654e-71 9.0143e-71 9.05196e-71 9.10461e-71 9.17827e-71 9.2796e-71 9.41395e-71 9.58235e-71 9.77851e-71 9.9871e-71 1.01845e-70 1.0342e-70 1.04319e-70 1.04331e-70 1.03363e-70 1.01457e-70 9.87795e-71 9.55815e-71 9.21494e-71 8.87586e-71 8.56412e-71 8.29677e-71 8.08383e-71 7.92815e-71 7.8254e-71 7.76433e-71 7.72747e-71 7.69252e-71 7.63462e-71 7.52982e-71 7.35949e-71 7.11507e-71 6.80191e-71 6.44084e-71 6.06636e-71 5.72149e-71 5.45033e-71 5.28993e-71 5.26354e-71 5.37649e-71 5.61535e-71 5.95013e-71 6.33916e-71 6.73552e-71 7.09412e-71 7.37818e-71 7.56396e-71 7.64309e-71 7.62226e-71 7.52059e-71 7.36556e-71 7.18838e-71 7.0195e-71 6.8849e-71 6.80354e-71 6.78609e-71 6.83497e-71 6.94535e-71 7.10646e-71 7.30268e-71 7.51396e-71 7.71589e-71 7.88029e-71 7.97712e-71 7.97813e-71 7.8618e-71 7.61768e-71 7.24885e-71 6.77101e-71 6.20886e-71 5.59091e-71 4.94481e-71 4.29436e-71 3.65875e-71 3.05321e-71 2.49017e-71 1.97997e-71 1.53079e-71 1.14791e-71 8.33035e-72 5.83913e-72 3.94722e-72 2.57027e-72 1.61079e-72 9.71032e-73 5.62898e-73 3.13758e-73 1.68179e-73 8.67108e-74 4.3019e-74 2.05465e-74 9.45241e-75 4.19121e-75 1.79229e-75 7.39679e-76 2.94814e-76 1.13561e-76 4.23055e-77 1.52531e-77 5.32625e-78 1.80255e-78 5.9163e-79 1.88453e-79 5.82948e-80 1.75229e-80 5.12155e-81 1.45639e-81 4.03168e-82 1.08712e-82 2.85682e-83 7.32048e-84 1.83007e-84 4.46565e-85 1.06414e-85 2.47749e-86 5.63793e-87 1.25462e-87 2.7313e-88 5.8193e-89 1.21391e-89 2.48019e-90 4.96504e-91 9.74221e-92 1.87429e-92 3.5368e-93 6.54812e-94 1.18985e-94 2.12256e-95 3.71566e-96 6.21963e-97 0 
0 2.97252e-136 3.17711e-135 3.33225e-134 3.45836e-133 3.55154e-132 3.60857e-131 3.62727e-130 3.60667e-129 3.54706e-128 3.44999e-127 3.31822e-126 3.15561e-125 2.96689e-124 2.75744e-123 2.53307e-122 2.29969e-121 2.06309e-120 1.82868e-119 1.6013e-118 1.38503e-117 1.18316e-116 9.98065e-116 8.31277e-115 6.83502e-114 5.54721e-113 4.44306e-112 3.51152e-111 2.73806e-110 2.10596e-109 1.59752e-108 1.19497e-107 8.81245e-107 6.40608e-106 4.58944e-105 3.23977e-104 2.25304e-103 1.54326e-102 1.04094e-101 6.91264e-101 4.51847e-100 2.90651e-99 1.83943e-98 1.14504e-97 7.00928e-97 4.21828e-96 2.49511e-95 1.45017e-94 8.27943e-94 4.64207e-93 2.55519e-92 1.38039e-91 7.31658e-91 3.80368e-90 1.93884e-89 9.68657e-89 4.74169e-88 2.27337e-87 1.06712e-86 4.90223e-86 2.20308e-85 9.68143e-85 4.15844e-84 1.74504e-83 7.15095e-83 2.86016e-82 1.11601e-81 4.2459e-81 1.57421e-80 5.68464e-80 1.99821e-79 6.83313e-79 2.27179e-78 7.33857e-78 2.30178e-77 7.00541e-77 2.06736e-76 5.91155e-76 1.63671e-75 4.38432e-75 1.13543e-74 2.84061e-74 6.85985e-74 1.59782e-73 3.58685e-73 7.75412e-73 1.61308e-72 3.22678e-72 6.2025e-72 1.14491e-71 2.02829e-71 3.4469e-71 5.61682e-71 8.77388e-71 1.31361e-70 1.885e-70 2.59304e-70 3.42074e-70 4.33022e-70 5.26457e-70 6.15477e-70 6.9306e-70 7.53342e-70 7.92742e-70 8.1064e-70 8.09425e-70 7.93898e-70 7.70236e-70 7.44788e-70 7.23025e-70 7.08862e-70 7.04415e-70 7.10109e-70 7.25013e-70 7.47224e-70 7.74235e-70 8.03264e-70 8.31593e-70 8.56913e-70 8.77645e-70 8.93141e-70 9.03683e-70 9.10266e-70 9.14228e-70 9.1688e-70 9.1927e-70 9.22129e-70 9.25995e-70 9.31387e-70 9.38918e-70 9.49266e-70 9.62977e-70 9.80156e-70 1.00016e-69 1.02143e-69 1.04155e-69 1.05761e-69 1.06677e-69 1.06688e-69 1.05699e-69 1.03753e-69 1.0102e-69 9.77556e-70 9.42524e-70 9.07915e-70 8.76098e-70 8.48811e-70 8.27079e-70 8.11193e-70 8.00707e-70 7.94471e-70 7.907e-70 7.87115e-70 7.81176e-70 7.7044e-70 7.53004e-70 7.27998e-70 6.95972e-70 6.59054e-70 6.20771e-70 5.85519e-70 5.57801e-70 5.41401e-70 5.38695e-70 5.50226e-70 5.74622e-70 6.08822e-70 6.4857e-70 6.89074e-70 7.2573e-70 7.54777e-70 7.73789e-70 7.81912e-70 7.79823e-70 7.69474e-70 7.5367e-70 7.35595e-70 7.18359e-70 7.04616e-70 6.96302e-70 6.94507e-70 6.99482e-70 7.10733e-70 7.27165e-70 7.47182e-70 7.68737e-70 7.89341e-70 8.06114e-70 8.15989e-70 8.16085e-70 8.04199e-70 7.79267e-70 7.41597e-70 6.92791e-70 6.35363e-70 5.72221e-70 5.06185e-70 4.39682e-70 3.74674e-70 3.1272e-70 2.55094e-70 2.02861e-70 1.56861e-70 1.17642e-70 8.5382e-71 5.98544e-71 4.04652e-71 2.63516e-71 1.6516e-71 9.95717e-72 5.77256e-72 3.21788e-72 1.72498e-72 8.89454e-73 4.41317e-73 2.108e-73 9.69885e-74 4.30095e-74 1.83943e-74 7.59226e-75 3.02644e-75 1.16593e-75 4.34411e-76 1.56649e-76 5.47089e-77 1.8518e-77 6.07897e-78 1.93669e-78 5.99191e-79 1.80146e-79 5.26628e-80 1.49784e-80 4.14731e-81 1.11853e-81 2.94003e-82 7.53538e-83 1.88423e-83 4.59889e-84 1.09615e-84 2.55265e-85 5.81043e-86 1.29334e-86 2.81632e-87 6.00205e-88 1.25237e-88 2.55947e-89 5.12517e-90 1.00592e-90 1.93584e-91 3.654e-92 6.7671e-93 1.23001e-93 2.19486e-94 3.84339e-95 6.43529e-96 0 
0 3.08653e-135 3.29768e-134 3.45733e-133 3.58675e-132 3.68194e-131 3.73959e-130 3.7575e-129 3.7347e-128 3.67153e-127 3.56967e-126 3.432e-125 3.26255e-124 3.06625e-123 2.8487e-122 2.6159e-121 2.37399e-120 2.12894e-119 1.88634e-118 1.65116e-117 1.42762e-116 1.21909e-115 1.02799e-114 8.55888e-114 7.03478e-113 5.70724e-112 4.56958e-111 3.6102e-110 2.81399e-109 2.16359e-108 1.64065e-107 1.22679e-106 9.04398e-106 6.57208e-105 4.70672e-104 3.32142e-103 2.30903e-102 1.58107e-101 1.06609e-100 7.07724e-100 4.62453e-99 2.97375e-98 1.88136e-97 1.17076e-96 7.16445e-96 4.31028e-95 2.54872e-94 1.48087e-93 8.45211e-93 4.73744e-92 2.6069e-91 1.4079e-90 7.46022e-90 3.87723e-89 1.97576e-88 9.86824e-88 4.82928e-87 2.31473e-86 1.08624e-85 4.98875e-85 2.24138e-84 9.8472e-84 4.22858e-83 1.77404e-82 7.26803e-82 2.9063e-81 1.13375e-80 4.31244e-80 1.59853e-79 5.77125e-79 2.02824e-78 6.93442e-78 2.30502e-77 7.44453e-77 2.3346e-76 7.10404e-76 2.09612e-75 5.99282e-75 1.65896e-74 4.44327e-74 1.15054e-73 2.87804e-73 6.94938e-73 1.61849e-72 3.63286e-72 7.85279e-72 1.63346e-71 3.26726e-71 6.27983e-71 1.1591e-70 2.05331e-70 3.48922e-70 5.6855e-70 8.88078e-70 1.32956e-69 1.90785e-69 2.62441e-69 3.46207e-69 4.38251e-69 5.32817e-69 6.22921e-69 7.01462e-69 7.62507e-69 8.02433e-69 8.20613e-69 8.19458e-69 8.03826e-69 7.79958e-69 7.54271e-69 7.32299e-69 7.18e-69 7.13511e-69 7.19265e-69 7.34322e-69 7.56761e-69 7.8405e-69 8.13381e-69 8.42007e-69 8.67597e-69 8.88557e-69 9.04232e-69 9.14906e-69 9.21583e-69 9.25614e-69 9.28322e-69 9.30764e-69 9.33678e-69 9.37607e-69 9.43072e-69 9.50692e-69 9.61152e-69 9.75001e-69 9.92347e-69 1.01254e-68 1.03401e-68 1.05431e-68 1.07052e-68 1.07975e-68 1.07985e-68 1.06984e-68 1.05018e-68 1.02256e-68 9.89586e-69 9.54196e-69 9.19233e-69 8.87092e-69 8.59528e-69 8.37578e-69 8.21532e-69 8.10941e-69 8.04639e-69 8.00821e-69 7.97181e-69 7.91154e-69 7.80266e-69 7.62601e-69 7.3728e-69 7.04862e-69 6.67502e-69 6.28766e-69 5.93101e-69 5.65057e-69 5.48461e-69 5.45713e-69 5.57364e-69 5.82027e-69 6.16608e-69 6.56804e-69 6.97772e-69 7.34856e-69 7.64255e-69 7.83514e-69 7.91766e-69 7.89695e-69 7.79269e-69 7.63322e-69 7.45073e-69 7.27662e-69 7.13773e-69 7.05364e-69 7.03537e-69 7.08547e-69 7.19899e-69 7.36485e-69 7.56696e-69 7.78462e-69 7.99269e-69 8.16206e-69 8.26175e-69 8.26263e-69 8.14245e-69 7.89042e-69 7.50963e-69 7.01621e-69 6.43555e-69 5.79696e-69 5.12891e-69 4.45593e-69 3.79783e-69 3.17041e-69 2.58664e-69 2.05732e-69 1.59103e-69 1.19339e-69 8.66237e-70 6.07311e-70 4.10618e-70 2.67426e-70 1.67625e-70 1.01065e-70 5.85962e-71 3.26667e-71 1.75128e-71 9.03094e-72 4.48124e-72 2.14071e-72 9.85034e-73 4.36858e-73 1.86856e-73 7.71339e-74 3.0751e-74 1.18483e-74 4.41514e-75 1.59233e-75 5.56197e-76 1.88292e-76 6.18216e-77 1.9699e-77 6.09574e-78 1.83301e-78 5.35954e-79 1.52467e-79 4.22244e-80 1.13903e-80 2.99456e-81 7.67684e-82 1.92004e-82 4.68737e-83 1.11751e-83 2.60301e-84 5.92652e-85 1.31951e-85 2.87405e-86 6.12668e-87 1.27872e-87 2.61402e-88 5.23584e-89 1.02793e-89 1.97876e-90 3.73607e-91 6.9211e-92 1.25837e-92 2.24614e-93 3.93436e-94 6.58952e-95 0 
0 3.17122e-134 3.38684e-133 3.54941e-132 3.68082e-131 3.77701e-130 3.83465e-129 3.8515e-128 3.82664e-127 3.76046e-126 3.65471e-125 3.51241e-124 3.3377e-123 3.13568e-122 2.91209e-121 2.67309e-120 2.42497e-119 2.17383e-118 1.92539e-117 1.68471e-116 1.45609e-115 1.24294e-114 1.04772e-113 8.71987e-113 7.16449e-112 5.81035e-111 4.65045e-110 3.67277e-109 2.86173e-108 2.19951e-107 1.6673e-106 1.24628e-105 9.18442e-105 6.67181e-104 4.7765e-103 3.3695e-102 2.34166e-101 1.60287e-100 1.08042e-99 7.17002e-99 4.6836e-98 3.01075e-97 1.90415e-96 1.18456e-95 7.2466e-95 4.35833e-94 2.57633e-93 1.49644e-92 8.53839e-92 4.78436e-91 2.63193e-90 1.421e-89 7.52744e-89 3.91104e-88 1.99242e-87 9.9487e-87 4.86731e-86 2.33233e-85 1.09421e-84 5.02403e-84 2.25665e-83 9.91181e-83 4.25528e-82 1.78481e-81 7.31042e-81 2.92258e-80 1.13985e-79 4.33467e-79 1.60643e-78 5.79857e-78 2.03743e-77 6.96448e-77 2.31458e-76 7.47404e-76 2.34344e-75 7.12975e-75 2.10336e-74 6.01262e-74 1.6642e-73 4.45668e-73 1.15386e-72 2.88598e-72 6.96775e-72 1.62259e-71 3.64169e-71 7.87114e-71 1.63713e-70 3.27435e-70 6.293e-70 1.16146e-69 2.05736e-69 3.49592e-69 5.69617e-69 8.8971e-69 1.33196e-68 1.91124e-68 2.62902e-68 3.46812e-68 4.39015e-68 5.33748e-68 6.2402e-68 7.02718e-68 7.63905e-68 8.03952e-68 8.22229e-68 8.2115e-68 8.05573e-68 7.81743e-68 7.56083e-68 7.34127e-68 7.19837e-68 7.15352e-68 7.21107e-68 7.36163e-68 7.58601e-68 7.85888e-68 8.15219e-68 8.43849e-68 8.69448e-68 8.90421e-68 9.06113e-68 9.1681e-68 9.23513e-68 9.27572e-68 9.30308e-68 9.32778e-68 9.35718e-68 9.39669e-68 9.45152e-68 9.52784e-68 9.63247e-68 9.77092e-68 9.94426e-68 1.0146e-67 1.03605e-67 1.05632e-67 1.0725e-67 1.08171e-67 1.0818e-67 1.07179e-67 1.05212e-67 1.0245e-67 9.91532e-68 9.56146e-68 9.21189e-68 8.89053e-68 8.61495e-68 8.39551e-68 8.23512e-68 8.12924e-68 8.06621e-68 8.02795e-68 7.99138e-68 7.93083e-68 7.82157e-68 7.64443e-68 7.39065e-68 7.06586e-68 6.69165e-68 6.30373e-68 5.94658e-68 5.66575e-68 5.49952e-68 5.47191e-68 5.58843e-68 5.8352e-68 6.18127e-68 6.5836e-68 6.99373e-68 7.36508e-68 7.65958e-68 7.85268e-68 7.93565e-68 7.91533e-68 7.81137e-68 7.65212e-68 7.46975e-68 7.29568e-68 7.15676e-68 7.07257e-68 7.05417e-68 7.10412e-68 7.21747e-68 7.38317e-68 7.58514e-68 7.80268e-68 8.01064e-68 8.17992e-68 8.27953e-68 8.28032e-68 8.16004e-68 7.90787e-68 7.52689e-68 7.03318e-68 6.45206e-68 5.81284e-68 5.14391e-68 4.46983e-68 3.81042e-68 3.18152e-68 2.59615e-68 2.06522e-68 1.59737e-68 1.1983e-68 8.69901e-69 6.09944e-69 4.12437e-69 2.68634e-69 1.68396e-69 1.01538e-69 5.8875e-70 3.28247e-70 1.75989e-70 9.07605e-71 4.504e-71 2.15178e-71 9.90217e-72 4.392e-72 1.87877e-72 7.75642e-73 3.09262e-73 1.19173e-73 4.44142e-74 1.60203e-74 5.59666e-75 1.89495e-75 6.22265e-76 1.98313e-76 6.13773e-77 1.84597e-77 5.39842e-78 1.53603e-78 4.25473e-79 1.14798e-79 3.0187e-80 7.74041e-81 1.93637e-81 4.72831e-82 1.12753e-82 2.62698e-83 5.98254e-84 1.33231e-84 2.90267e-85 6.18929e-86 1.29212e-86 2.64213e-87 5.29358e-88 1.03955e-88 2.00168e-89 3.78044e-90 7.0053e-91 1.27405e-91 2.2748e-92 3.98574e-93 6.67748e-94 0 
0 3.22366e-133 3.4415e-132 3.60527e-131 3.73727e-130 3.83344e-129 3.89041e-128 3.90599e-127 3.87927e-126 3.8107e-125 3.7021e-124 3.55659e-123 3.37839e-122 3.17269e-121 2.94534e-120 2.70259e-119 2.4508e-118 2.19616e-117 1.94444e-116 1.70075e-115 1.46941e-114 1.25384e-113 1.05651e-112 8.78988e-112 7.21937e-111 5.85274e-110 4.68269e-109 3.6969e-108 2.87951e-107 2.21239e-106 1.67647e-105 1.25269e-104 9.22849e-104 6.70151e-103 4.79611e-102 3.38218e-101 2.34968e-100 1.60781e-99 1.0834e-98 7.18737e-98 4.6934e-97 3.01607e-96 1.9069e-95 1.18589e-94 7.25244e-94 4.36048e-93 2.5768e-92 1.49626e-91 8.53477e-91 4.7809e-90 2.62925e-89 1.41914e-88 7.51542e-88 3.90368e-87 1.98812e-86 9.92448e-86 4.85415e-85 2.3254e-84 1.09068e-83 5.00651e-83 2.24821e-82 9.87231e-82 4.2373e-81 1.77685e-80 7.27612e-80 2.90821e-79 1.13399e-78 4.31149e-78 1.59751e-77 5.76519e-77 2.02531e-76 6.92173e-76 2.29995e-75 7.42549e-75 2.32783e-74 7.0811e-74 2.08869e-73 5.96979e-73 1.65211e-72 4.42372e-72 1.14518e-71 2.86393e-71 6.91375e-71 1.60985e-70 3.61275e-70 7.8079e-70 1.62385e-69 3.24753e-69 6.24105e-69 1.1518e-68 2.04014e-68 3.4665e-68 5.64799e-68 8.82154e-68 1.32061e-67 1.89491e-67 2.60651e-67 3.43839e-67 4.3525e-67 5.29174e-67 6.18682e-67 6.96728e-67 7.57425e-67 7.9718e-67 8.15367e-67 8.14374e-67 7.99013e-67 7.75469e-67 7.50099e-67 7.28386e-67 7.14253e-67 7.09819e-67 7.15515e-67 7.30415e-67 7.52618e-67 7.79622e-67 8.0865e-67 8.36988e-67 8.6233e-67 8.83099e-67 8.98647e-67 9.09255e-67 9.15914e-67 9.19958e-67 9.22695e-67 9.25167e-67 9.28102e-67 9.32035e-67 9.37478e-67 9.45042e-67 9.55401e-67 9.69099e-67 9.86241e-67 1.00619e-66 1.02739e-66 1.04743e-66 1.06342e-66 1.07251e-66 1.07258e-66 1.06266e-66 1.0432e-66 1.01587e-66 9.83243e-67 9.48228e-67 9.13638e-67 8.8184e-67 8.54574e-67 8.32864e-67 8.16997e-67 8.06522e-67 8.00284e-67 7.9649e-67 7.92855e-67 7.86834e-67 7.75983e-67 7.58403e-67 7.33231e-67 7.01028e-67 6.63934e-67 6.25486e-67 5.90091e-67 5.62259e-67 5.45781e-67 5.43035e-67 5.54568e-67 5.79003e-67 6.13279e-67 6.53133e-67 6.93768e-67 7.30568e-67 7.59766e-67 7.78926e-67 7.87183e-67 7.8521e-67 7.74953e-67 7.59213e-67 7.41177e-67 7.23955e-67 7.10203e-67 7.01862e-67 7.00028e-67 7.04954e-67 7.16156e-67 7.32539e-67 7.52512e-67 7.74029e-67 7.946e-67 8.11344e-67 8.21193e-67 8.21263e-67 8.09349e-67 7.84381e-67 7.46657e-67 6.97766e-67 6.4021e-67 5.76883e-67 5.10595e-67 4.43772e-67 3.7838e-67 3.1599e-67 2.57897e-67 2.05188e-67 1.58729e-67 1.19089e-67 8.64625e-68 6.06308e-68 4.10017e-68 2.67081e-68 1.67436e-68 1.00967e-68 5.85481e-69 3.26448e-69 1.75038e-69 9.02768e-70 4.48036e-70 2.14066e-70 9.85188e-71 4.3701e-71 1.86959e-71 7.71933e-72 3.07817e-72 1.1863e-72 4.42175e-73 1.59515e-73 5.57338e-74 1.88735e-74 6.19862e-75 1.97579e-75 6.11603e-76 1.83976e-76 5.38123e-77 1.53142e-77 4.24279e-78 1.14498e-78 3.01145e-79 7.72343e-80 1.93253e-80 4.72e-81 1.12581e-81 2.62357e-82 5.97621e-83 1.33123e-83 2.90103e-84 6.18735e-85 1.29205e-85 2.64267e-86 5.29609e-87 1.04033e-87 2.00373e-88 3.78536e-89 7.01641e-90 1.27644e-90 2.27973e-91 3.99556e-92 6.69581e-93 0 
0 3.24185e-132 3.45958e-131 3.62278e-130 3.75396e-129 3.84905e-128 3.90473e-127 3.91884e-126 3.89051e-125 3.82027e-124 3.70998e-123 3.56278e-122 3.38298e-121 3.17579e-120 2.9471e-119 2.70318e-118 2.45042e-117 2.195e-116 1.94268e-115 1.69858e-114 1.46699e-113 1.25131e-112 1.054e-111 8.76578e-111 7.19697e-110 5.83247e-109 4.6648e-108 3.68146e-107 2.86646e-106 2.20159e-105 1.6677e-104 1.24571e-103 9.17385e-103 6.65954e-102 4.76445e-101 3.35871e-100 2.33259e-99 1.59559e-98 1.0748e-97 7.12802e-97 4.65313e-96 2.98922e-95 1.88933e-94 1.17459e-93 7.18108e-93 4.31624e-92 2.54988e-91 1.48018e-90 8.44049e-90 4.72669e-89 2.59867e-88 1.40223e-87 7.42378e-87 3.855e-86 1.96279e-85 9.79536e-85 4.78972e-84 2.29393e-83 1.07564e-82 4.93624e-82 2.21611e-81 9.72897e-81 4.17478e-80 1.75023e-79 7.16549e-79 2.86336e-78 1.11626e-77 4.2432e-77 1.57188e-76 5.6716e-76 1.99205e-75 6.80683e-75 2.26137e-74 7.2997e-74 2.28802e-73 6.95892e-73 2.05234e-72 5.86508e-72 1.62291e-71 4.34499e-71 1.12467e-70 2.81232e-70 6.78843e-70 1.58052e-69 3.5466e-69 7.6643e-69 1.59386e-68 3.18735e-68 6.125e-68 1.13032e-67 2.002e-67 3.40154e-67 5.54194e-67 8.65563e-67 1.29574e-66 1.85918e-66 2.55733e-66 3.37348e-66 4.27033e-66 5.19188e-66 6.07017e-66 6.83611e-66 7.43199e-66 7.82255e-66 8.00164e-66 7.99267e-66 7.84277e-66 7.61257e-66 7.36437e-66 7.15188e-66 7.01356e-66 6.97017e-66 7.02597e-66 7.17187e-66 7.3893e-66 7.65375e-66 7.93803e-66 8.21558e-66 8.46384e-66 8.66736e-66 8.81981e-66 8.92391e-66 8.98938e-66 9.02925e-66 9.05633e-66 9.0808e-66 9.10981e-66 9.14854e-66 9.20202e-66 9.27621e-66 9.37769e-66 9.51179e-66 9.67954e-66 9.87471e-66 1.00821e-65 1.02781e-65 1.04344e-65 1.05233e-65 1.05238e-65 1.04266e-65 1.0236e-65 9.96838e-66 9.64887e-66 9.30601e-66 8.96731e-66 8.65597e-66 8.38901e-66 8.17647e-66 8.02114e-66 7.9186e-66 7.85751e-66 7.82028e-66 7.78452e-66 7.72529e-66 7.61864e-66 7.446e-66 7.19893e-66 6.88296e-66 6.51909e-66 6.14199e-66 5.79486e-66 5.52191e-66 5.36027e-66 5.33325e-66 5.44619e-66 5.68564e-66 6.02158e-66 6.41226e-66 6.81065e-66 7.17155e-66 7.45801e-66 7.64614e-66 7.72746e-66 7.70852e-66 7.60836e-66 7.45443e-66 7.27791e-66 7.10929e-66 6.97458e-66 6.8928e-66 6.8747e-66 6.92279e-66 7.03233e-66 7.19262e-66 7.38808e-66 7.59869e-66 7.80003e-66 7.96393e-66 8.0603e-66 8.06091e-66 7.94413e-66 7.69948e-66 7.32984e-66 6.85073e-66 6.28661e-66 5.66578e-66 5.01572e-66 4.36019e-66 3.71844e-66 3.10592e-66 2.53538e-66 2.01753e-66 1.56095e-66 1.17129e-66 8.50493e-67 5.9646e-67 4.03396e-67 2.6279e-67 1.64759e-67 9.93602e-68 5.76204e-68 3.21298e-68 1.72288e-68 8.88652e-69 4.41063e-69 2.10751e-69 9.70011e-70 4.30316e-70 1.84112e-70 7.60255e-71 3.03192e-71 1.16861e-71 4.35633e-72 1.57174e-72 5.49234e-73 1.86016e-73 6.11024e-74 1.94791e-74 6.03072e-75 1.8144e-75 5.30798e-76 1.51085e-76 4.18658e-77 1.13003e-77 2.97272e-78 7.62567e-79 1.90848e-79 4.66226e-80 1.11228e-80 2.59265e-81 5.90715e-82 1.31616e-82 2.86889e-83 6.12033e-84 1.27838e-84 2.61539e-85 5.24279e-86 1.03013e-86 1.98464e-87 3.75032e-88 6.95341e-89 1.26533e-89 2.26055e-90 3.9631e-91 6.64327e-92 0 
0 3.22488e-131 3.44014e-130 3.60101e-129 3.72993e-128 3.82292e-127 3.87672e-126 3.88922e-125 3.85962e-124 3.78847e-123 3.67768e-122 3.53042e-121 3.35098e-120 3.14455e-119 2.91701e-118 2.67457e-117 2.42357e-116 2.17014e-115 1.91997e-114 1.6781e-113 1.44877e-112 1.23532e-111 1.04015e-110 8.64744e-110 7.09724e-109 5.74959e-108 4.59687e-107 3.62657e-106 2.82272e-105 2.16724e-104 1.64111e-103 1.22542e-102 9.02131e-102 6.54658e-101 4.68204e-100 3.29951e-99 2.29071e-98 1.56642e-97 1.05481e-96 6.99314e-96 4.56361e-95 2.93078e-94 1.8518e-93 1.1509e-92 7.03405e-92 4.22657e-91 2.49614e-90 1.44855e-89 8.25771e-89 4.62297e-88 2.54092e-87 1.37068e-86 7.25469e-86 3.76616e-85 1.91703e-84 9.56445e-84 4.67558e-83 2.23869e-82 1.04947e-81 4.81495e-81 2.16113e-80 9.48535e-80 4.06929e-79 1.70562e-78 6.9813e-78 2.78916e-77 1.08711e-76 4.13153e-76 1.53021e-75 5.5202e-75 1.93852e-74 6.62273e-74 2.19983e-73 7.09989e-73 2.22504e-72 6.76636e-72 1.99527e-71 5.70121e-71 1.57737e-70 4.22254e-70 1.09285e-69 2.73246e-69 6.59503e-69 1.53535e-68 3.44496e-68 7.44408e-68 1.54796e-67 3.09535e-67 5.94788e-67 1.09758e-66 1.94392e-66 3.30274e-66 5.38079e-66 8.4037e-66 1.258e-65 1.805e-65 2.48277e-65 3.2751e-65 4.14579e-65 5.0405e-65 5.89329e-65 6.63712e-65 7.21597e-65 7.59564e-65 7.77015e-65 7.7622e-65 7.61748e-65 7.39477e-65 7.1545e-65 6.94874e-65 6.81479e-65 6.77278e-65 6.82686e-65 6.96823e-65 7.1789e-65 7.43514e-65 7.71063e-65 7.97962e-65 8.22026e-65 8.41759e-65 8.56548e-65 8.66657e-65 8.73024e-65 8.76914e-65 8.79565e-65 8.81963e-65 8.84798e-65 8.88573e-65 8.93772e-65 9.00971e-65 9.10809e-65 9.23798e-65 9.40042e-65 9.58936e-65 9.79007e-65 9.97979e-65 1.0131e-64 1.0217e-64 1.02173e-64 1.01231e-64 9.93828e-65 9.67898e-65 9.36941e-65 9.03723e-65 8.70907e-65 8.40744e-65 8.14882e-65 7.94294e-65 7.79248e-65 7.69317e-65 7.63397e-65 7.59784e-65 7.56302e-65 7.50537e-65 7.40166e-65 7.23391e-65 6.99396e-65 6.68719e-65 6.334e-65 5.96804e-65 5.63118e-65 5.3663e-65 5.20941e-65 5.18309e-65 5.29254e-65 5.52472e-65 5.85051e-65 6.22945e-65 6.61595e-65 6.96615e-65 7.24424e-65 7.42703e-65 7.50627e-65 7.48828e-65 7.39152e-65 7.24256e-65 7.07163e-65 6.90827e-65 6.7777e-65 6.69836e-65 6.6807e-65 6.72714e-65 6.83312e-65 6.98829e-65 7.17756e-65 7.38153e-65 7.57654e-65 7.73527e-65 7.82858e-65 7.82908e-65 7.71584e-65 7.47863e-65 7.12025e-65 6.65568e-65 6.10858e-65 5.50634e-65 4.87554e-65 4.23922e-65 3.61603e-65 3.02098e-65 2.46649e-65 1.96305e-65 1.51903e-65 1.13999e-65 8.27862e-66 5.80651e-66 3.9274e-66 2.5587e-66 1.60432e-66 9.6758e-67 5.61151e-67 3.12925e-67 1.6781e-67 8.65609e-68 4.29656e-68 2.05315e-68 9.45067e-69 4.19285e-69 1.79408e-69 7.40899e-70 2.95503e-70 1.13909e-70 4.24677e-71 1.5324e-71 5.35554e-72 1.81407e-72 5.95968e-73 1.9002e-73 5.8839e-74 1.77051e-74 5.18047e-75 1.47481e-75 4.08746e-76 1.10349e-76 2.90345e-77 7.44947e-78 1.86476e-78 4.55644e-79 1.08727e-79 2.53492e-80 5.77695e-81 1.28745e-81 2.80699e-82 5.98974e-83 1.25142e-83 2.56087e-84 5.13484e-85 1.00919e-85 1.94481e-86 3.67606e-87 6.8176e-88 1.24097e-88 2.21765e-89 3.88901e-90 6.52087e-91 0 
0 3.17295e-130 3.38344e-129 3.54027e-128 3.66559e-127 3.75551e-126 3.80688e-125 3.81768e-124 3.78717e-123 3.71593e-122 3.60589e-121 3.46018e-120 3.28306e-119 3.07966e-118 2.85573e-117 2.61741e-116 2.37089e-115 2.12218e-114 1.87684e-113 1.6398e-112 1.41518e-111 1.20624e-110 1.0153e-109 8.43777e-109 6.92267e-108 5.60616e-107 4.4806e-106 3.5336e-105 2.74939e-104 2.1102e-103 1.59736e-102 1.19234e-101 8.77483e-101 6.36555e-100 4.55104e-99 3.20612e-98 2.22513e-97 1.52108e-96 1.02394e-95 6.78631e-95 4.42722e-94 2.84229e-93 1.79532e-92 1.11545e-91 6.81532e-91 4.09389e-90 2.41706e-89 1.40224e-88 7.99138e-88 4.47258e-87 2.45756e-86 1.32534e-85 7.01277e-85 3.63958e-84 1.8521e-83 9.23808e-83 4.51486e-82 2.16119e-81 1.01289e-80 4.64597e-80 2.08479e-79 9.14815e-79 3.92374e-78 1.64424e-77 6.72864e-77 2.68765e-76 1.04733e-75 3.97957e-75 1.47365e-74 5.31517e-74 1.86618e-73 6.37451e-73 2.11703e-72 6.83159e-72 2.14064e-71 6.50875e-71 1.91905e-70 5.4827e-70 1.51673e-69 4.05976e-69 1.05061e-68 2.62658e-68 6.33891e-68 1.4756e-67 3.31063e-67 7.15332e-67 1.4874e-66 2.97409e-66 5.71459e-66 1.05448e-65 1.86752e-65 3.17282e-65 5.16898e-65 8.07269e-65 1.20843e-64 1.73384e-64 2.38487e-64 3.14594e-64 3.98231e-64 4.84178e-64 5.66106e-64 6.37577e-64 6.93214e-64 7.29733e-64 7.46558e-64 7.45867e-64 7.32043e-64 7.10727e-64 6.87714e-64 6.68002e-64 6.55167e-64 6.51143e-64 6.56328e-64 6.69881e-64 6.90077e-64 7.14642e-64 7.41054e-64 7.66846e-64 7.89924e-64 8.08854e-64 8.23048e-64 8.3276e-64 8.38887e-64 8.42641e-64 8.45208e-64 8.47533e-64 8.50275e-64 8.53914e-64 8.58915e-64 8.65827e-64 8.75261e-64 8.87711e-64 9.03272e-64 9.21367e-64 9.40587e-64 9.58753e-64 9.73231e-64 9.81451e-64 9.81472e-64 9.72427e-64 9.54708e-64 9.2985e-64 9.00175e-64 8.68332e-64 8.36877e-64 8.07965e-64 7.83178e-64 7.63447e-64 7.49029e-64 7.39512e-64 7.33837e-64 7.30367e-64 7.27015e-64 7.21463e-64 7.11486e-64 6.95358e-64 6.72302e-64 6.42835e-64 6.08917e-64 5.73778e-64 5.41436e-64 5.16004e-64 5.00936e-64 4.98401e-64 5.08895e-64 5.31168e-64 5.62428e-64 5.98794e-64 6.35891e-64 6.69514e-64 6.96223e-64 7.13795e-64 7.21434e-64 7.19746e-64 7.10497e-64 6.96235e-64 6.79859e-64 6.642e-64 6.51679e-64 6.44065e-64 6.42358e-64 6.46796e-64 6.56941e-64 6.71803e-64 6.89935e-64 7.09478e-64 7.28165e-64 7.43374e-64 7.52313e-64 7.52354e-64 7.41487e-64 7.18733e-64 6.84356e-64 6.39787e-64 5.87291e-64 5.29488e-64 4.68927e-64 4.07812e-64 3.47935e-64 2.90738e-64 2.3742e-64 1.88993e-64 1.46267e-64 1.09784e-64 7.97351e-65 5.59309e-65 3.7834e-65 2.46509e-65 1.54574e-65 9.32314e-66 5.40734e-66 3.01558e-66 1.61724e-66 8.34269e-67 4.14127e-67 1.97908e-67 9.11035e-68 4.04217e-68 1.72975e-68 7.14394e-69 2.84958e-69 1.09855e-69 4.09607e-70 1.47819e-70 5.1667e-71 1.75033e-71 5.75105e-72 1.83394e-72 5.67957e-73 1.70929e-73 5.00215e-74 1.42429e-74 3.94812e-75 1.06606e-75 2.80551e-76 7.1996e-77 1.80258e-77 4.40541e-78 1.05146e-78 2.45195e-79 5.58912e-80 1.24588e-80 2.71699e-81 5.79908e-82 1.21188e-82 2.48059e-83 4.97513e-84 9.78054e-85 1.8853e-85 3.56454e-86 6.61259e-87 1.20398e-87 2.15216e-88 3.77524e-89 6.33183e-90 0 