# vtk DataFile Version 3.0
Gray-Scott Simulation Output
ASCII
DATASET STRUCTURED_POINTS
DIMENSIONS 256 256 1
SPACING 1.0 1.0 1.0
ORIGIN 0 0 0
POINT_DATA 65536
SCALARS u double
LOOKUP_TABLE default
0 0 0 0 0 0 0 0 0 0 0 0 0 0 0 0 0 0 0 0 0 0 0 0 0 0 0 0 0 0 0 0 0 0 0 0 0 0 0 0 0 0 0 0 0 0 0 0 0 0 0 0 0 0 0 0 0 0 0 0 0 0 0 0 0 0 0 0 0 0 0 0 0 0 0 0 0 0 0 0 0 0 0 0 0 0 0 0 0 0 0 0 0 0 0 0 0 0 0 0 0 0 0 0 0 0 0 0 0 0 0 0 0 0 0 0 0 0 0 0 0 0 0 0 0 0 0 0 0 0 0 0 0 0 0 0 0 0 0 0 0 0 0 0 0 0 0 0 0 0 0 0 0 0 0 0 0 0 0 0 0 0 0 0 0 0 0 0 0 0 0 0 0 0 0 0 0 0 0 0 0 0 0 0 0 0 0 0 0 0 0 0 0 0 0 0 0 0 0 0 0 0 0 0 0 0 0 0 0 0 0 0 0 0 0 0 0 0 0 0 0 0 0 0 0 0 0 0 0 0 0 0 0 0 0 0 0 0 0 0 0 0 0 0 0 0 0 0 0 0 0 0 0 0 0 0 
0 2.13784e-85 9.16518e-85 3.6882e-84 1.4664e-83 5.77703e-83 2.25538e-82 8.72513e-82 3.34448e-81 1.27016e-80 4.77896e-80 1.78122e-79 6.57625e-79 2.40483e-78 8.70964e-78 3.12387e-77 1.1095e-76 3.90185e-76 1.35857e-75 4.68308e-75 1.59801e-74 5.39742e-74 1.80434e-73 5.96944e-73 1.95432e-72 6.33089e-72 2.02909e-71 6.43371e-71 2.01794e-70 6.26032e-70 1.92081e-69 5.82816e-69 1.7486e-68 5.18704e-68 1.52115e-67 4.40964e-67 1.26347e-66 3.57777e-66 1.00115e-65 2.76803e-65 7.5611e-65 2.04027e-64 5.43791e-64 1.43141e-63 3.72077e-63 9.54965e-63 2.41976e-62 6.05252e-62 1.49425e-61 3.64065e-61 8.75283e-61 2.07623e-60 4.85849e-60 1.12143e-59 2.55285e-59 5.73069e-59 1.2684e-58 2.76769e-58 5.95288e-58 1.26191e-57 2.63607e-57 5.42573e-57 1.10019e-56 2.19751e-56 4.32297e-56 8.37459e-56 1.59741e-55 2.99971e-55 5.54494e-55 1.00881e-54 1.80618e-54 3.18198e-54 5.51519e-54 9.40373e-54 1.57712e-53 2.60138e-53 4.21961e-53 6.73015e-53 1.05541e-52 1.62712e-52 2.46599e-52 3.67368e-52 5.37932e-52 7.74188e-52 1.09508e-51 1.52235e-51 2.07996e-51 2.79302e-51 3.68627e-51 4.78214e-51 6.09841e-51 7.64581e-51 9.42562e-51 1.14277e-50 1.36295e-50 1.59954e-50 1.8478e-50 2.10207e-50 2.35603e-50 2.60323e-50 2.83748e-50 3.05337e-50 3.24668e-50 3.41464e-50 3.55615e-50 3.67173e-50 3.76336e-50 3.83421e-50 3.88827e-50 3.92987e-50 3.96332e-50 3.99252e-50 4.0207e-50 4.05023e-50 4.08261e-50 4.11851e-50 4.15785e-50 4.20008e-50 4.24428e-50 4.28942e-50 4.33454e-50 4.37882e-50 4.42171e-50 4.46291e-50 4.50236e-50 4.54018e-50 4.57657e-50 4.61171e-50 4.64568e-50 4.67833e-50 4.70932e-50 4.73798e-50 4.76344e-50 4.78459e-50 4.80024e-50 4.80919e-50 4.81036e-50 4.80292e-50 4.7864e-50 4.76074e-50 4.72631e-50 4.6839e-50 4.63464e-50 4.57987e-50 4.52103e-50 4.45947e-50 4.39638e-50 4.33264e-50 4.26878e-50 4.20503e-50 4.14132e-50 4.07744e-50 4.01318e-50 3.94846e-50 3.88351e-50 3.81896e-50 3.7559e-50 3.69583e-50 3.64061e-50 3.59224e-50 3.55272e-50 3.52375e-50 3.50657e-50 3.50174e-50 3.50905e-50 3.5275e-50 3.55537e-50 3.59038e-50 3.62988e-50 3.67115e-50 3.71163e-50 3.74917e-50 3.78219e-50 3.8098e-50 3.83178e-50 3.84856e-50 3.861e-50 3.87024e-50 3.87746e-50 3.88366e-50 3.88943e-50 3.89481e-50 3.8992e-50 3.90134e-50 3.89933e-50 3.89078e-50 3.87295e-50 3.84296e-50 3.79801e-50 3.73559e-50 3.65373e-50 3.55109e-50 3.42713e-50 3.28215e-50 3.11733e-50 2.93467e-50 2.73688e-50 2.52728e-50 2.30963e-50 2.08797e-50 1.86638e-50 1.64884e-50 1.43904e-50 1.24022e-50 1.05508e-50 8.85639e-51 7.33253e-51 5.98581e-51 4.81637e-51 3.81866e-51 2.98247e-51 2.29405e-51 1.73738e-51 1.29528e-51 9.5047e-52 6.86361e-52 4.87702e-52 3.4096e-52 2.34512e-52 1.58679e-52 1.05621e-52 6.916e-53 4.45481e-53 2.82283e-53 1.75967e-53 1.07918e-53 6.51163e-54 3.86591e-54 2.25846e-54 1.29839e-54 7.34636e-55 4.09123e-55 2.24282e-55 1.21043e-55 6.43191e-56 3.36545e-56 1.73421e-56 8.80174e-57 4.40043e-57 2.16739e-57 1.05184e-57 5.03021e-58 2.37084e-58 1.10143e-58 5.04429e-59 2.27768e-59 1.01412e-59 4.45291e-60 1.92847e-60 8.23853e-61 3.47203e-61 1.44319e-61 5.9042e-62 2.34324e-62 8.11913e-63 0 
0 9.15331e-85 3.92445e-84 1.5794e-83 6.28016e-83 2.47439e-82 9.66115e-82 3.7379e-81 1.43296e-80 5.44273e-80 2.04806e-79 7.63454e-79 2.81904e-78 1.03102e-77 3.7346e-77 1.33968e-76 4.75885e-76 1.67383e-75 5.82902e-75 2.00963e-74 6.85863e-74 2.31698e-73 7.74699e-73 2.56349e-72 8.39416e-72 2.71977e-71 8.71881e-71 2.76509e-70 8.6746e-70 2.69175e-69 8.26081e-69 2.50709e-68 7.52373e-68 2.23238e-67 6.54831e-67 1.89876e-66 5.44186e-66 1.54139e-65 4.31435e-65 1.19319e-64 3.26022e-64 8.79988e-64 2.34611e-63 6.17748e-63 1.60625e-62 4.12385e-62 1.04526e-61 2.61534e-61 6.45888e-61 1.57419e-60 3.78591e-60 8.98345e-60 2.1029e-59 4.85553e-59 1.10571e-58 2.483e-58 5.49769e-58 1.20004e-57 2.58201e-57 5.47536e-57 1.14419e-56 2.35588e-56 4.77881e-56 9.54848e-56 1.87905e-55 3.64142e-55 6.94822e-55 1.30523e-54 2.41351e-54 4.39243e-54 7.86678e-54 1.38634e-53 2.40362e-53 4.09952e-53 6.87736e-53 1.1347e-52 1.84103e-52 2.93712e-52 4.607e-52 7.10416e-52 1.07689e-51 1.60458e-51 2.34994e-51 3.38251e-51 4.78511e-51 6.65283e-51 9.09039e-51 1.22075e-50 1.61122e-50 2.09023e-50 2.66553e-50 3.34177e-50 4.11943e-50 4.99403e-50 5.95558e-50 6.98847e-50 8.07195e-50 9.18109e-50 1.02884e-49 1.13654e-49 1.23853e-49 1.33244e-49 1.41643e-49 1.48932e-49 1.55062e-49 1.60057e-49 1.64007e-49 1.6705e-49 1.69362e-49 1.71132e-49 1.72549e-49 1.73784e-49 1.74977e-49 1.76233e-49 1.77616e-49 1.79155e-49 1.80846e-49 1.82666e-49 1.84572e-49 1.86522e-49 1.88472e-49 1.90386e-49 1.92241e-49 1.94023e-49 1.9573e-49 1.97366e-49 1.9894e-49 2.00461e-49 2.01931e-49 2.03344e-49 2.04686e-49 2.05928e-49 2.0703e-49 2.07947e-49 2.08626e-49 2.09014e-49 2.09066e-49 2.08745e-49 2.0803e-49 2.06919e-49 2.05429e-49 2.03593e-49 2.0146e-49 1.99089e-49 1.96541e-49 1.93877e-49 1.91146e-49 1.88388e-49 1.85625e-49 1.82867e-49 1.8011e-49 1.77347e-49 1.74566e-49 1.71765e-49 1.68953e-49 1.66157e-49 1.63425e-49 1.60822e-49 1.58429e-49 1.56332e-49 1.54619e-49 1.53363e-49 1.52618e-49 1.5241e-49 1.52727e-49 1.53529e-49 1.54739e-49 1.56258e-49 1.57973e-49 1.59763e-49 1.61519e-49 1.63146e-49 1.64577e-49 1.65773e-49 1.66725e-49 1.6745e-49 1.67987e-49 1.68386e-49 1.68698e-49 1.68966e-49 1.69217e-49 1.69452e-49 1.69646e-49 1.69744e-49 1.69663e-49 1.693e-49 1.68535e-49 1.67244e-49 1.65304e-49 1.62608e-49 1.59066e-49 1.54622e-49 1.49252e-49 1.42967e-49 1.35817e-49 1.27889e-49 1.193e-49 1.10193e-49 1.00732e-49 9.10906e-50 8.14472e-50 7.19751e-50 6.28352e-50 5.41695e-50 4.60956e-50 3.87031e-50 3.20517e-50 2.61709e-50 2.10623e-50 1.67024e-50 1.30471e-50 1.00369e-50 7.60223e-51 5.66825e-51 4.15958e-51 3.00385e-51 2.13445e-51 1.4922e-51 1.0263e-51 6.94388e-52 4.62166e-52 3.02591e-52 1.94884e-52 1.23472e-52 7.69571e-53 4.71881e-53 2.84673e-53 1.68974e-53 9.86927e-54 5.67256e-54 3.20878e-54 1.78654e-54 9.79129e-55 5.28286e-55 2.8064e-55 1.46802e-55 7.56251e-56 3.83712e-56 1.91781e-56 9.44316e-57 4.58141e-57 2.1903e-57 1.03202e-57 4.79303e-58 2.19444e-58 9.90568e-59 4.40909e-59 1.93541e-59 8.37942e-60 3.57866e-60 1.50774e-60 6.26525e-61 2.56244e-61 1.0167e-61 3.52207e-62 0 
0 3.67802e-84 1.57708e-83 6.34765e-83 2.5243e-82 9.94692e-82 3.8842e-81 1.50299e-80 5.76261e-80 2.18907e-79 8.23851e-79 3.07151e-78 1.13432e-77 4.14925e-77 1.5032e-76 5.39322e-76 1.91613e-75 6.74081e-75 2.34788e-74 8.09617e-74 2.76367e-73 9.33813e-73 3.12292e-72 1.0336e-71 3.38529e-71 1.09711e-70 3.51784e-70 1.11592e-69 3.50172e-69 1.08687e-68 3.33639e-68 1.01284e-67 3.04034e-67 9.02357e-67 2.64767e-66 7.67951e-66 2.20161e-65 6.23788e-65 1.74653e-64 4.83181e-64 1.32065e-63 3.56584e-63 9.51001e-63 2.50492e-62 6.5155e-62 1.67337e-61 4.24298e-61 1.06202e-60 2.62376e-60 6.39716e-60 1.5391e-59 3.65349e-59 8.55563e-59 1.97625e-58 4.50216e-58 1.01141e-57 2.24031e-57 4.89213e-57 1.05302e-56 2.23393e-56 4.67017e-56 9.6198e-56 1.95213e-55 3.90211e-55 7.68206e-55 1.48931e-54 2.84288e-54 5.34245e-54 9.88259e-54 1.79925e-53 3.22362e-53 5.68293e-53 9.85646e-53 1.68166e-52 2.82207e-52 4.65761e-52 7.55918e-52 1.20631e-51 1.89265e-51 2.91927e-51 4.4262e-51 6.59648e-51 9.66252e-51 1.39106e-50 1.96815e-50 2.73669e-50 3.73974e-50 5.02244e-50 6.62919e-50 8.60016e-50 1.09671e-49 1.37488e-49 1.69471e-49 2.05432e-49 2.44956e-49 2.87396e-49 3.31895e-49 3.77424e-49 4.22847e-49 4.66999e-49 5.08771e-49 5.47194e-49 5.81515e-49 6.11249e-49 6.36208e-49 6.56496e-49 6.72483e-49 6.8475e-49 6.94018e-49 7.01073e-49 7.06693e-49 7.11578e-49 7.16308e-49 7.2131e-49 7.26848e-49 7.33037e-49 7.39865e-49 7.47226e-49 7.54955e-49 7.62867e-49 7.70785e-49 7.78565e-49 7.86103e-49 7.93348e-49 8.00287e-49 8.0694e-49 8.13343e-49 8.19528e-49 8.25507e-49 8.3126e-49 8.36721e-49 8.41776e-49 8.46268e-49 8.50004e-49 8.52771e-49 8.54357e-49 8.54572e-49 8.53268e-49 8.50363e-49 8.45843e-49 8.39777e-49 8.32304e-49 8.23622e-49 8.13971e-49 8.03604e-49 7.92762e-49 7.81653e-49 7.70434e-49 7.59198e-49 7.47981e-49 7.36773e-49 7.25534e-49 7.14222e-49 7.02824e-49 6.9138e-49 6.79999e-49 6.68872e-49 6.58268e-49 6.48515e-49 6.3997e-49 6.32986e-49 6.27868e-49 6.24834e-49 6.23986e-49 6.25286e-49 6.2856e-49 6.335e-49 6.39702e-49 6.46698e-49 6.54002e-49 6.61163e-49 6.67797e-49 6.73627e-49 6.78495e-49 6.82366e-49 6.85312e-49 6.87492e-49 6.8911e-49 6.90376e-49 6.91469e-49 6.92495e-49 6.93464e-49 6.94271e-49 6.94692e-49 6.94392e-49 6.92948e-49 6.89871e-49 6.84651e-49 6.76789e-49 6.65839e-49 6.51442e-49 6.33359e-49 6.11486e-49 5.8587e-49 5.56713e-49 5.24359e-49 4.89285e-49 4.52074e-49 4.13391e-49 3.73947e-49 3.34471e-49 2.95672e-49 2.58211e-49 2.22673e-49 1.89544e-49 1.59194e-49 1.31872e-49 1.07705e-49 8.67011e-50 6.87683e-50 5.37283e-50 4.13388e-50 3.13151e-50 2.33509e-50 1.71369e-50 1.2376e-50 8.79408e-51 6.14788e-51 4.22816e-51 2.86055e-51 1.90372e-51 1.24626e-51 8.02542e-52 5.08381e-52 3.16802e-52 1.94216e-52 1.17139e-52 6.95142e-53 4.0591e-53 2.33243e-53 1.31901e-53 7.34169e-54 4.02248e-54 2.16965e-54 1.15221e-54 6.02524e-55 3.10289e-55 1.57384e-55 7.86347e-56 3.8706e-56 1.8772e-56 8.97152e-57 4.22572e-57 1.96187e-57 8.9791e-58 4.05176e-58 1.80284e-58 7.91104e-59 3.42393e-59 1.46179e-59 6.15664e-60 2.55748e-60 1.04565e-60 4.14758e-61 1.43646e-61 0 
0 1.46013e-83 6.26145e-83 2.52047e-82 1.00245e-81 3.95059e-81 1.54287e-80 5.97093e-80 2.28963e-79 8.69899e-79 3.27432e-78 1.22093e-77 4.50967e-77 1.64987e-76 5.97823e-76 2.14525e-75 7.62315e-75 2.68228e-74 9.34442e-74 3.22287e-73 1.10037e-72 3.71882e-72 1.24395e-71 4.11805e-71 1.34907e-70 4.37314e-70 1.40257e-69 4.45033e-69 1.39686e-68 4.33673e-68 1.33162e-67 4.04358e-67 1.21415e-66 3.60459e-66 1.05797e-65 3.06955e-65 8.80273e-65 2.4949e-64 6.98771e-64 1.93381e-63 5.28737e-63 1.42812e-62 3.8101e-62 1.00393e-61 2.61227e-61 6.71157e-61 1.70243e-60 4.26283e-60 1.05356e-59 2.56976e-59 6.18508e-59 1.4688e-58 3.441e-58 7.95159e-58 1.81223e-57 4.0729e-57 9.0254e-57 1.9717e-56 4.24587e-56 9.01123e-56 1.88466e-55 3.88375e-55 7.88459e-55 1.57672e-54 3.1054e-54 6.02291e-54 1.15017e-53 2.16232e-53 4.00153e-53 7.28818e-53 1.30629e-52 2.30374e-52 3.99709e-52 6.82205e-52 1.14524e-51 1.89075e-51 3.06961e-51 4.90001e-51 7.69009e-51 1.18645e-50 1.79933e-50 2.68218e-50 3.92964e-50 5.65826e-50 8.00687e-50 1.11348e-49 1.52174e-49 2.04383e-49 2.6978e-49 3.49995e-49 4.46313e-49 5.59492e-49 6.89593e-49 8.35837e-49 9.96515e-49 1.16898e-48 1.34973e-48 1.53456e-48 1.71883e-48 1.89781e-48 2.06698e-48 2.22241e-48 2.36106e-48 2.48098e-48 2.58141e-48 2.66283e-48 2.72676e-48 2.77558e-48 2.81225e-48 2.83998e-48 2.86194e-48 2.88099e-48 2.89948e-48 2.91912e-48 2.94101e-48 2.9656e-48 2.99283e-48 3.02226e-48 3.05322e-48 3.08496e-48 3.11675e-48 3.14799e-48 3.17828e-48 3.20739e-48 3.23528e-48 3.26203e-48 3.28777e-48 3.31264e-48 3.33669e-48 3.35983e-48 3.3818e-48 3.40215e-48 3.42024e-48 3.43529e-48 3.44645e-48 3.45285e-48 3.45374e-48 3.44851e-48 3.43683e-48 3.41865e-48 3.39424e-48 3.36417e-48 3.32924e-48 3.2904e-48 3.24869e-48 3.20508e-48 3.1604e-48 3.11529e-48 3.07011e-48 3.02502e-48 2.97997e-48 2.93478e-48 2.88929e-48 2.84345e-48 2.7974e-48 2.7516e-48 2.7068e-48 2.66409e-48 2.6248e-48 2.59036e-48 2.56222e-48 2.54159e-48 2.52937e-48 2.52597e-48 2.53123e-48 2.54445e-48 2.5644e-48 2.58942e-48 2.61765e-48 2.64711e-48 2.67598e-48 2.70272e-48 2.7262e-48 2.7458e-48 2.76136e-48 2.77319e-48 2.78194e-48 2.78842e-48 2.7935e-48 2.7979e-48 2.80205e-48 2.806e-48 2.80932e-48 2.81112e-48 2.81004e-48 2.80437e-48 2.79215e-48 2.7713e-48 2.73981e-48 2.69587e-48 2.63803e-48 2.56529e-48 2.47723e-48 2.37403e-48 2.25648e-48 2.12595e-48 1.98435e-48 1.83403e-48 1.67766e-48 1.51811e-48 1.35832e-48 1.20118e-48 1.04936e-48 9.05244e-49 7.70814e-49 6.47593e-49 5.36607e-49 4.38385e-49 3.52982e-49 2.80035e-49 2.18831e-49 1.68397e-49 1.27581e-49 9.51436e-50 6.98295e-50 5.04315e-50 3.58357e-50 2.5052e-50 1.72285e-50 1.16549e-50 7.75567e-51 5.07656e-51 3.26861e-51 2.07018e-51 1.2898e-51 7.90543e-52 4.76697e-52 2.82817e-52 1.65099e-52 9.48425e-53 5.36188e-53 2.98354e-53 1.63416e-53 8.81148e-54 4.67787e-54 2.44536e-54 1.25888e-54 6.38305e-55 3.18806e-55 1.56868e-55 7.60521e-56 3.63337e-56 1.71075e-56 7.93959e-57 3.63247e-57 1.63853e-57 7.28807e-58 3.19691e-58 1.38314e-58 5.90298e-59 2.48529e-59 1.03204e-59 4.21815e-60 1.6726e-60 5.7914e-61 0 
0 5.74344e-83 2.46319e-82 9.91644e-82 3.94446e-81 1.55469e-80 6.07255e-80 2.3504e-79 9.01421e-79 3.42528e-78 1.28948e-77 4.809e-77 1.77656e-76 6.50069e-76 2.35591e-75 8.45561e-75 3.00526e-74 1.05764e-73 3.6853e-73 1.27132e-72 4.34154e-72 1.46759e-71 4.91021e-71 1.62589e-70 5.3277e-70 1.72745e-69 5.54176e-69 1.75885e-68 5.5221e-68 1.71488e-67 5.26715e-67 1.59987e-66 4.8053e-66 1.42704e-65 4.18973e-65 1.21598e-64 3.48827e-64 9.88986e-64 2.77089e-63 7.67092e-63 2.09811e-62 5.66902e-62 1.513e-61 3.98814e-61 1.03812e-60 2.66822e-60 6.77074e-60 1.69605e-59 4.19347e-59 1.02326e-58 2.46388e-58 5.85354e-58 1.37191e-57 3.17162e-57 7.23149e-57 1.62595e-56 3.60463e-56 7.87818e-56 1.69724e-55 3.60375e-55 7.54044e-55 1.55456e-54 3.15739e-54 6.31679e-54 1.24466e-53 2.41506e-53 4.61393e-53 8.67793e-53 1.60659e-52 2.92736e-52 5.24897e-52 9.26061e-52 1.60737e-51 2.74441e-51 4.60878e-51 7.61157e-51 1.23614e-50 1.97386e-50 3.09869e-50 4.78205e-50 7.25415e-50 1.08159e-49 1.58496e-49 2.28259e-49 3.23055e-49 4.49317e-49 6.14124e-49 8.24882e-49 1.08887e-48 1.41265e-48 1.80138e-48 2.25808e-48 2.78294e-48 3.37276e-48 4.02057e-48 4.71562e-48 5.44367e-48 6.18772e-48 6.92903e-48 7.64842e-48 8.32772e-48 8.9511e-48 9.50635e-48 9.9857e-48 1.03863e-47 1.071e-47 1.09632e-47 1.11556e-47 1.12992e-47 1.1407e-47 1.14918e-47 1.15652e-47 1.16366e-47 1.1713e-47 1.17986e-47 1.18953e-47 1.20029e-47 1.21195e-47 1.22424e-47 1.23686e-47 1.24951e-47 1.26195e-47 1.27401e-47 1.28561e-47 1.29672e-47 1.30738e-47 1.31764e-47 1.32755e-47 1.33714e-47 1.34637e-47 1.35513e-47 1.36325e-47 1.37048e-47 1.37649e-47 1.38095e-47 1.38351e-47 1.38387e-47 1.38179e-47 1.37714e-47 1.36989e-47 1.36016e-47 1.34816e-47 1.33422e-47 1.31873e-47 1.3021e-47 1.2847e-47 1.26689e-47 1.24891e-47 1.2309e-47 1.21293e-47 1.19498e-47 1.17697e-47 1.15884e-47 1.14056e-47 1.12219e-47 1.10391e-47 1.08603e-47 1.06898e-47 1.05328e-47 1.03953e-47 1.02828e-47 1.02004e-47 1.01516e-47 1.01381e-47 1.01592e-47 1.02121e-47 1.0292e-47 1.03921e-47 1.0505e-47 1.06228e-47 1.07382e-47 1.08451e-47 1.09388e-47 1.1017e-47 1.10791e-47 1.11262e-47 1.11609e-47 1.11867e-47 1.12069e-47 1.12244e-47 1.12411e-47 1.1257e-47 1.12706e-47 1.12782e-47 1.12744e-47 1.12525e-47 1.12044e-47 1.11219e-47 1.09969e-47 1.08222e-47 1.05918e-47 1.03018e-47 9.95048e-48 9.53834e-48 9.06852e-48 8.54648e-48 7.97979e-48 7.37776e-48 6.75108e-48 6.11123e-48 5.46999e-48 4.83894e-48 4.22886e-48 3.64937e-48 3.10849e-48 2.61242e-48 2.16536e-48 1.7695e-48 1.42514e-48 1.13088e-48 8.8389e-49 6.80291e-49 5.15472e-49 3.84452e-49 2.82183e-49 2.03803e-49 1.44819e-49 1.01238e-49 6.96182e-50 4.70924e-50 3.13337e-50 2.0507e-50 1.32016e-50 8.35974e-51 5.20736e-51 3.19097e-51 1.92369e-51 1.14099e-51 6.65891e-52 3.82414e-52 2.1613e-52 1.20225e-52 6.58282e-53 3.54831e-53 1.88309e-53 9.84038e-54 5.06405e-54 2.56675e-54 1.28151e-54 6.30332e-55 3.05479e-55 1.45887e-55 6.8664e-56 3.18549e-56 1.45686e-56 6.56909e-57 2.92079e-57 1.28073e-57 5.53899e-58 2.36306e-58 9.94541e-59 4.12841e-59 1.68677e-59 6.68629e-60 2.31454e-60 0 
0 2.23871e-82 9.60219e-82 3.86617e-81 1.53804e-80 6.06293e-80 2.36848e-79 9.16859e-79 3.51684e-78 1.33656e-77 5.03243e-77 1.8771e-76 6.93567e-76 2.53831e-75 9.20077e-75 3.30288e-74 1.17413e-73 4.13293e-73 1.4404e-72 4.97003e-72 1.69764e-71 5.73991e-71 1.92089e-70 6.36207e-70 2.08523e-69 6.76287e-69 2.17014e-68 6.88947e-68 2.16363e-67 6.72103e-67 2.06492e-66 6.27399e-66 1.885e-65 5.59968e-65 1.64457e-64 4.77459e-64 1.37014e-63 3.88593e-63 1.08912e-62 3.0162e-62 8.25273e-62 2.23069e-61 5.95575e-61 1.57049e-60 4.08962e-60 1.05155e-59 2.66945e-59 6.68963e-59 1.6547e-58 4.03939e-58 9.73051e-58 2.31272e-57 5.42276e-57 1.25421e-56 2.86096e-56 6.43557e-56 1.42737e-55 3.12106e-55 6.72697e-55 1.42899e-54 2.99139e-54 6.16999e-54 1.25373e-53 2.50941e-53 4.9468e-53 9.60284e-53 1.83543e-52 3.45362e-52 6.39666e-52 1.16604e-51 2.09167e-51 3.69179e-51 6.41044e-51 1.09494e-50 1.83945e-50 3.03902e-50 4.93713e-50 7.88616e-50 1.2384e-49 1.91171e-49 2.90074e-49 4.32605e-49 6.34074e-49 9.13339e-49 1.29286e-48 1.7984e-48 2.45831e-48 3.30222e-48 4.35923e-48 5.65554e-48 7.21169e-48 9.03962e-48 1.11399e-47 1.34993e-47 1.60898e-47 1.88679e-47 2.17764e-47 2.4747e-47 2.77044e-47 3.05719e-47 3.32767e-47 3.57556e-47 3.79602e-47 3.98598e-47 4.14432e-47 4.27189e-47 4.37124e-47 4.44632e-47 4.50196e-47 4.54339e-47 4.57574e-47 4.60365e-47 4.63089e-47 4.66024e-47 4.6934e-47 4.73109e-47 4.7732e-47 4.81898e-47 4.86735e-47 4.91707e-47 4.96696e-47 5.01606e-47 5.0637e-47 5.1095e-47 5.15339e-47 5.19549e-47 5.23602e-47 5.2752e-47 5.3131e-47 5.34959e-47 5.38426e-47 5.4164e-47 5.44499e-47 5.4688e-47 5.48648e-47 5.49666e-47 5.49812e-47 5.48993e-47 5.47155e-47 5.44289e-47 5.40439e-47 5.35694e-47 5.30182e-47 5.24055e-47 5.17476e-47 5.106e-47 5.03558e-47 4.9645e-47 4.89335e-47 4.82235e-47 4.75141e-47 4.68026e-47 4.6086e-47 4.53634e-47 4.4637e-47 4.39139e-47 4.32062e-47 4.25311e-47 4.19096e-47 4.13648e-47 4.09194e-47 4.0593e-47 4.03997e-47 4.03463e-47 4.04303e-47 4.06405e-47 4.09573e-47 4.13546e-47 4.18024e-47 4.22696e-47 4.2727e-47 4.31503e-47 4.35215e-47 4.38308e-47 4.40759e-47 4.42618e-47 4.43988e-47 4.45002e-47 4.45798e-47 4.46492e-47 4.47154e-47 4.47794e-47 4.48344e-47 4.48663e-47 4.48537e-47 4.47694e-47 4.4582e-47 4.42587e-47 4.37672e-47 4.30785e-47 4.21693e-47 4.10234e-47 3.96335e-47 3.80018e-47 3.61404e-47 3.40705e-47 3.18218e-47 2.94313e-47 2.69411e-47 2.43968e-47 2.18452e-47 1.93323e-47 1.69013e-47 1.45906e-47 1.24325e-47 1.0452e-47 8.66604e-48 7.08382e-48 5.70675e-48 4.52947e-48 3.54094e-48 2.72576e-48 2.06565e-48 1.54077e-48 1.13099e-48 8.16869e-49 5.80458e-49 4.05763e-49 2.79016e-49 1.8872e-49 1.25553e-49 8.21594e-50 5.2882e-50 3.34804e-50 2.08508e-50 1.27739e-50 7.69883e-51 4.56515e-51 2.66348e-51 1.52914e-51 8.63956e-52 4.80425e-52 2.62964e-52 1.41695e-52 7.51703e-53 3.92671e-53 2.02e-53 1.02346e-53 5.10793e-54 2.51145e-54 1.21666e-54 5.80808e-55 2.7326e-55 1.26722e-55 5.79325e-56 2.61121e-56 1.16056e-56 5.08691e-57 2.19918e-57 9.37864e-58 3.94569e-58 1.63727e-58 6.68707e-59 2.64982e-59 9.17021e-60 0 
0 8.64662e-82 3.70907e-81 1.49359e-80 5.94259e-80 2.34288e-79 9.15375e-79 3.54403e-78 1.35961e-77 5.16797e-77 1.94617e-76 7.2605e-76 2.68314e-75 9.82156e-75 3.56076e-74 1.27849e-73 4.54577e-73 1.60044e-72 5.57905e-72 1.92545e-71 6.57836e-71 2.22475e-70 7.44704e-70 2.46711e-69 8.08828e-69 2.6239e-68 8.42215e-68 2.67449e-67 8.40161e-67 2.61062e-66 8.02311e-66 2.43847e-65 7.32862e-65 2.17778e-64 6.39807e-64 1.85814e-63 5.33408e-63 1.51336e-62 4.24308e-62 1.17551e-61 3.21757e-61 8.70036e-61 2.32383e-60 6.13021e-60 1.59699e-59 4.10797e-59 1.04328e-58 2.61557e-58 6.47249e-58 1.58073e-57 3.80954e-57 9.05849e-57 2.12496e-56 4.91699e-56 1.12213e-55 2.52535e-55 5.60373e-55 1.22588e-54 2.64346e-54 5.61812e-54 1.17663e-53 2.42807e-53 4.93616e-53 9.8847e-53 1.94949e-52 3.78618e-52 7.24005e-52 1.36295e-51 2.52555e-51 4.60585e-51 8.26572e-51 1.45952e-50 2.53538e-50 4.33232e-50 7.28097e-50 1.20336e-49 1.95566e-49 3.12487e-49 4.9087e-49 7.57977e-49 1.15044e-48 1.71615e-48 2.51595e-48 3.62478e-48 5.13186e-48 7.13957e-48 9.76046e-48 1.31122e-47 1.73101e-47 2.2458e-47 2.86368e-47 3.58934e-47 4.4229e-47 5.35904e-47 6.38644e-47 7.48775e-47 8.6401e-47 9.81625e-47 1.09863e-46 1.21197e-46 1.31875e-46 1.41649e-46 1.50327e-46 1.57788e-46 1.63992e-46 1.68972e-46 1.72833e-46 1.75734e-46 1.77866e-46 1.79439e-46 1.80658e-46 1.81706e-46 1.82732e-46 1.83847e-46 1.85118e-46 1.86572e-46 1.88205e-46 1.89986e-46 1.91873e-46 1.93815e-46 1.95765e-46 1.97686e-46 1.99551e-46 2.01344e-46 2.03063e-46 2.04712e-46 2.06299e-46 2.07834e-46 2.09319e-46 2.1075e-46 2.1211e-46 2.1337e-46 2.14492e-46 2.15428e-46 2.16122e-46 2.16523e-46 2.16582e-46 2.16262e-46 2.15542e-46 2.14419e-46 2.12909e-46 2.11049e-46 2.08887e-46 2.06485e-46 2.03905e-46 2.0121e-46 1.9845e-46 1.95665e-46 1.92878e-46 1.90097e-46 1.87318e-46 1.84531e-46 1.81723e-46 1.78891e-46 1.76044e-46 1.73207e-46 1.70431e-46 1.67781e-46 1.65341e-46 1.63201e-46 1.61452e-46 1.6017e-46 1.59411e-46 1.59202e-46 1.59534e-46 1.60361e-46 1.61608e-46 1.63171e-46 1.64932e-46 1.66768e-46 1.68566e-46 1.70229e-46 1.71686e-46 1.72899e-46 1.73859e-46 1.74586e-46 1.75121e-46 1.75517e-46 1.75828e-46 1.761e-46 1.76361e-46 1.76616e-46 1.76837e-46 1.7697e-46 1.7693e-46 1.7661e-46 1.75887e-46 1.74632e-46 1.72716e-46 1.70027e-46 1.6647e-46 1.61981e-46 1.56532e-46 1.50128e-46 1.42817e-46 1.34681e-46 1.25835e-46 1.16424e-46 1.06614e-46 9.65826e-47 8.65152e-47 7.65934e-47 6.6988e-47 5.78516e-47 4.93128e-47 4.14715e-47 3.43965e-47 2.81249e-47 2.26637e-47 1.79926e-47 1.40687e-47 1.08317e-47 8.20972e-48 6.12428e-48 4.49577e-48 3.24723e-48 2.30745e-48 1.61295e-48 1.10904e-48 7.50061e-49 4.98946e-49 3.2645e-49 2.10082e-49 1.32979e-49 8.27976e-50 5.07123e-50 3.05561e-50 1.81136e-50 1.05649e-50 6.06356e-51 3.42474e-51 1.90376e-51 1.04167e-51 5.61082e-52 2.97548e-52 1.55372e-52 7.98966e-53 4.04648e-53 2.01872e-53 9.92161e-54 4.80453e-54 2.29266e-54 1.07821e-54 4.9981e-55 2.28401e-55 1.02906e-55 4.57184e-56 2.00311e-56 8.65641e-57 3.69015e-57 1.55188e-57 6.43705e-58 2.62808e-58 1.04104e-58 3.6017e-59 0 
0 3.3089e-81 1.41956e-80 5.71709e-80 2.27499e-79 8.9705e-79 3.50534e-78 1.35736e-77 5.20814e-77 1.97997e-76 7.45754e-76 2.78265e-75 1.02853e-74 3.76561e-74 1.36547e-73 4.90371e-73 1.74392e-72 6.14122e-72 2.14127e-71 7.39168e-71 2.52599e-70 8.54478e-70 2.86097e-69 9.48049e-69 3.10895e-68 1.00884e-67 3.23908e-67 1.02888e-66 3.23307e-66 1.00491e-65 3.08932e-65 9.39238e-65 2.82373e-64 8.39385e-64 2.46686e-63 7.16683e-63 2.05809e-62 5.84125e-62 1.63835e-61 4.54065e-61 1.24334e-60 3.36335e-60 8.987e-60 2.37173e-59 6.18122e-59 1.59069e-58 4.04155e-58 1.01369e-57 2.50961e-57 6.13183e-57 1.47844e-56 3.51714e-56 8.25448e-56 1.91093e-55 4.36313e-55 9.82399e-55 2.181e-54 4.77353e-54 1.02986e-53 2.18984e-53 4.58858e-53 9.47359e-53 1.9269e-52 3.86054e-52 7.61763e-52 1.48017e-51 2.8318e-51 5.33348e-51 9.88763e-51 1.80405e-50 3.23905e-50 5.72191e-50 9.94401e-50 1.69989e-49 2.85804e-49 4.72547e-49 7.68253e-49 1.22799e-48 1.92964e-48 2.98058e-48 4.52516e-48 6.75211e-48 9.90123e-48 1.42679e-47 2.02037e-47 2.8112e-47 3.84362e-47 5.16394e-47 6.81754e-47 8.84516e-47 1.12785e-46 1.41357e-46 1.74169e-46 2.11006e-46 2.51418e-46 2.94715e-46 3.39993e-46 3.86173e-46 4.32074e-46 4.76494e-46 5.18296e-46 5.56502e-46 5.90362e-46 6.19412e-46 6.43494e-46 6.62757e-46 6.77618e-46 6.88706e-46 6.96787e-46 7.02689e-46 7.07218e-46 7.11096e-46 7.14912e-46 7.19098e-46 7.23915e-46 7.2947e-46 7.3574e-46 7.42608e-46 7.49898e-46 7.57416e-46 7.64976e-46 7.72427e-46 7.79661e-46 7.8662e-46 7.93292e-46 7.99693e-46 8.05857e-46 8.11818e-46 8.17588e-46 8.23147e-46 8.28434e-46 8.33337e-46 8.37704e-46 8.41345e-46 8.44052e-46 8.45617e-46 8.45852e-46 8.44613e-46 8.41817e-46 8.37453e-46 8.31586e-46 8.24353e-46 8.15949e-46 8.06611e-46 7.96585e-46 7.8611e-46 7.75388e-46 7.64569e-46 7.53745e-46 7.42947e-46 7.32158e-46 7.21334e-46 7.1043e-46 6.99428e-46 6.8836e-46 6.77332e-46 6.66531e-46 6.5622e-46 6.46722e-46 6.38392e-46 6.31579e-46 6.26588e-46 6.23636e-46 6.22825e-46 6.24122e-46 6.27353e-46 6.32217e-46 6.38313e-46 6.45179e-46 6.52338e-46 6.59342e-46 6.65815e-46 6.71486e-46 6.762e-46 6.79929e-46 6.82748e-46 6.8482e-46 6.8635e-46 6.87554e-46 6.88612e-46 6.89635e-46 6.90638e-46 6.91522e-46 6.92069e-46 6.91953e-46 6.90755e-46 6.87996e-46 6.83167e-46 6.75772e-46 6.65363e-46 6.51573e-46 6.34148e-46 6.12969e-46 5.8806e-46 5.59596e-46 5.27892e-46 4.93398e-46 4.56671e-46 4.18354e-46 3.79144e-46 3.39763e-46 3.00921e-46 2.63289e-46 2.2747e-46 1.93969e-46 1.63185e-46 1.35391e-46 1.10739e-46 8.92611e-47 7.08814e-47 5.54352e-47 4.26882e-47 3.23593e-47 2.41419e-47 1.77236e-47 1.28019e-47 9.09689e-48 6.35865e-48 4.37183e-48 2.95643e-48 1.96638e-48 1.28635e-48 8.27662e-49 5.23788e-49 3.26051e-49 1.9965e-49 1.20263e-49 7.12703e-50 4.15561e-50 2.38425e-50 1.34617e-50 7.48048e-51 4.09153e-51 2.20302e-51 1.16783e-51 6.09569e-52 3.13331e-52 1.58626e-52 7.91033e-53 3.88614e-53 1.88107e-53 8.97243e-54 4.21786e-54 1.95438e-54 8.92729e-55 4.0205e-55 1.78545e-55 7.81952e-56 3.3778e-56 1.43934e-56 6.05061e-57 2.50873e-57 1.02385e-57 4.0542e-58 1.40224e-58 0 
0 1.25453e-80 5.3827e-80 2.16811e-79 8.62877e-79 3.40291e-78 1.32994e-77 5.1507e-77 1.97663e-76 7.51583e-76 2.83133e-75 1.05666e-74 3.90638e-74 1.43047e-73 5.18818e-73 1.86358e-72 6.62896e-72 2.33491e-71 8.14306e-71 2.81166e-70 9.61075e-70 3.2519e-69 1.08908e-68 3.6099e-68 1.18413e-67 3.84354e-67 1.2344e-66 3.92218e-66 1.23285e-65 3.83319e-65 1.17878e-64 3.58501e-64 1.07816e-63 3.20607e-63 9.42564e-63 2.73937e-62 7.86953e-62 2.23438e-61 6.26939e-61 1.73823e-60 4.76162e-60 1.28859e-59 3.44462e-59 9.09448e-59 2.37124e-58 6.10491e-58 1.5518e-57 3.89398e-57 9.64482e-57 2.35767e-56 5.68727e-56 1.35363e-55 3.17842e-55 7.36176e-55 1.68171e-54 3.78843e-54 8.41486e-54 1.84269e-53 3.97754e-53 8.46197e-53 1.77403e-52 3.66456e-52 7.45744e-52 1.49487e-51 2.95119e-51 5.73734e-51 1.0982e-50 2.0694e-50 3.83831e-50 7.00657e-50 1.25858e-49 2.22437e-49 3.86745e-49 6.61417e-49 1.11251e-48 1.84018e-48 2.99287e-48 4.78565e-48 7.52267e-48 1.16235e-47 1.76523e-47 2.63467e-47 3.86442e-47 5.56991e-47 7.88862e-47 1.09782e-46 1.50118e-46 2.01702e-46 2.66305e-46 3.45513e-46 4.40556e-46 5.5213e-46 6.80225e-46 8.23984e-46 9.81624e-46 1.15043e-45 1.32685e-45 1.50665e-45 1.68521e-45 1.85783e-45 2.02006e-45 2.16811e-45 2.29908e-45 2.41116e-45 2.5038e-45 2.57761e-45 2.63423e-45 2.67618e-45 2.70645e-45 2.7283e-45 2.74489e-45 2.75902e-45 2.77302e-45 2.78853e-45 2.80659e-45 2.82759e-45 2.85144e-45 2.87767e-45 2.90559e-45 2.93443e-45 2.96347e-45 2.99211e-45 3.01993e-45 3.0467e-45 3.07237e-45 3.097e-45 3.12073e-45 3.14368e-45 3.1659e-45 3.18731e-45 3.20769e-45 3.22659e-45 3.24344e-45 3.25749e-45 3.26795e-45 3.27401e-45 3.27494e-45 3.27019e-45 3.25943e-45 3.24262e-45 3.22001e-45 3.19214e-45 3.15975e-45 3.12377e-45 3.08514e-45 3.04478e-45 3.00349e-45 2.96183e-45 2.92017e-45 2.8786e-45 2.83708e-45 2.79542e-45 2.75344e-45 2.71106e-45 2.66842e-45 2.62592e-45 2.58427e-45 2.54449e-45 2.50784e-45 2.47569e-45 2.44939e-45 2.43013e-45 2.41874e-45 2.41563e-45 2.42066e-45 2.43316e-45 2.45197e-45 2.47555e-45 2.50209e-45 2.52975e-45 2.5568e-45 2.58179e-45 2.60366e-45 2.62183e-45 2.63618e-45 2.64702e-45 2.65496e-45 2.66083e-45 2.66545e-45 2.66952e-45 2.67349e-45 2.67742e-45 2.68092e-45 2.68316e-45 2.68287e-45 2.67844e-45 2.66801e-45 2.64962e-45 2.62134e-45 2.58142e-45 2.52844e-45 2.46141e-45 2.37984e-45 2.28381e-45 2.17396e-45 2.05152e-45 1.91818e-45 1.77609e-45 1.62774e-45 1.4758e-45 1.32307e-45 1.17232e-45 1.02614e-45 8.86905e-46 7.56585e-46 6.36746e-46 5.2848e-46 4.32394e-46 3.48631e-46 2.76915e-46 2.16619e-46 1.66839e-46 1.26489e-46 9.4378e-47 6.92915e-47 5.00516e-47 3.55659e-47 2.48593e-47 1.70905e-47 1.15561e-47 7.68513e-48 5.02656e-48 3.23354e-48 2.04589e-48 1.27323e-48 7.7942e-49 4.69362e-49 2.78067e-49 1.62081e-49 9.29605e-50 5.24676e-50 2.91446e-50 1.59348e-50 8.57642e-51 4.54456e-51 2.37113e-51 1.2183e-51 6.16511e-52 3.07308e-52 1.50907e-52 7.30141e-53 3.48115e-53 1.63574e-53 7.57602e-54 3.45908e-54 1.55716e-54 6.91212e-55 3.02591e-55 1.30654e-55 5.56503e-56 2.33842e-56 9.69163e-57 3.95368e-57 1.56497e-57 5.41122e-58 0 