# vtk DataFile Version 3.0
Gray-Scott Simulation Output
ASCII
DATASET STRUCTURED_POINTS
DIMENSIONS 256 256 1
SPACING 1.0 1.0 1.0
ORIGIN 0 0 0
POINT_DATA 65536
SCALARS u double
LOOKUP_TABLE default
0 0 0 0 0 0 0 0 0 0 0 0 0 0 0 0 0 0 0 0 0 0 0 0 0 0 0 0 0 0 0 0 0 0 0 0 0 0 0 0 0 0 0 0 0 0 0 0 0 0 0 0 0 0 0 0 0 0 0 0 0 0 0 0 0 0 0 0 0 0 0 0 0 0 0 0 0 0 0 0 0 0 0 0 0 0 0 0 0 0 0 0 0 0 0 0 0 0 0 0 0 0 0 0 0 0 0 0 0 0 0 0 0 0 0 0 0 0 0 0 0 0 0 0 0 0 0 0 0 0 0 0 0 0 0 0 0 0 0 0 0 0 0 0 0 0 0 0 0 0 0 0 0 0 0 0 0 0 0 0 0 0 0 0 0 0 0 0 0 0 0 0 0 0 0 0 0 0 0 0 0 0 0 0 0 0 0 0 0 0 0 0 0 0 0 0 0 0 0 0 0 0 0 0 0 0 0 0 0 0 0 0 0 0 0 0 0 0 0 0 0 0 0 0 0 0 0 0 0 0 0 0 0 0 0 0 0 0 0 0 0 0 0 0 0 0 0 0 0 0 0 0 0 0 0 0 
0 1.78032e-114 1.30134e-113 9.24683e-113 6.50258e-112 4.52661e-111 3.11901e-110 2.12705e-109 1.43553e-108 9.58691e-108 6.33479e-107 4.14123e-106 2.67808e-105 1.71305e-104 1.08373e-103 6.78003e-103 4.19419e-102 2.56521e-101 1.55098e-100 9.26921e-100 5.47498e-99 3.19574e-98 1.84312e-97 1.0502e-96 5.91113e-96 3.28617e-95 1.80414e-94 9.78027e-94 5.23442e-93 2.76541e-92 1.44198e-91 7.41991e-91 3.76714e-90 1.88681e-89 9.3213e-89 4.54134e-88 2.1816e-87 1.03318e-86 4.82285e-86 2.21862e-85 1.00561e-84 4.49014e-84 1.97464e-83 8.5512e-83 3.64575e-82 1.52994e-81 6.31822e-81 2.56716e-80 1.02601e-79 4.03258e-79 1.55829e-78 5.91888e-78 2.20926e-77 8.10142e-77 2.91786e-76 1.03191e-75 3.58238e-75 1.22048e-74 4.0794e-74 1.33732e-73 4.2985e-73 1.35427e-72 4.18085e-72 1.26431e-71 3.7439e-71 1.08526e-70 3.07843e-70 8.54199e-70 2.31775e-69 6.14744e-69 1.59324e-68 4.03332e-68 9.96954e-68 2.4052e-67 5.66138e-67 1.29963e-66 2.90854e-66 6.34334e-66 1.34766e-65 2.78803e-65 5.61438e-65 1.10011e-64 2.09674e-64 3.88575e-64 6.99982e-64 1.22531e-63 2.08368e-63 3.44136e-63 5.51882e-63 8.59214e-63 1.29848e-62 1.90462e-62 2.71151e-62 3.74678e-62 5.02575e-62 6.54531e-62 8.27912e-62 1.01755e-61 1.21592e-61 1.41376e-61 1.60106e-61 1.76835e-61 1.90792e-61 2.01496e-61 2.08813e-61 2.12969e-61 2.14495e-61 2.14143e-61 2.12757e-61 2.11163e-61 2.10059e-61 2.09949e-61 2.11107e-61 2.13587e-61 2.17246e-61 2.21805e-61 2.26906e-61 2.32172e-61 2.37262e-61 2.41914e-61 2.45964e-61 2.49354e-61 2.52119e-61 2.54366e-61 2.56246e-61 2.57933e-61 2.59597e-61 2.61395e-61 2.63456e-61 2.65868e-61 2.68671e-61 2.71832e-61 2.75243e-61 2.78707e-61 2.8195e-61 2.84646e-61 2.86457e-61 2.87079e-61 2.86297e-61 2.8402e-61 2.803e-61 2.75334e-61 2.69429e-61 2.62967e-61 2.5635e-61 2.49947e-61 2.44053e-61 2.38852e-61 2.34403e-61 2.30633e-61 2.27351e-61 2.2428e-61 2.21093e-61 2.1747e-61 2.13151e-61 2.07995e-61 2.02021e-61 1.95426e-61 1.88582e-61 1.81997e-61 1.76245e-61 1.71886e-61 1.69378e-61 1.68999e-61 1.70804e-61 1.74601e-61 1.79981e-61 1.86367e-61 1.931e-61 1.9952e-61 2.05055e-61 2.0929e-61 2.12006e-61 2.13192e-61 2.1303e-61 2.1185e-61 2.10076e-61 2.08163e-61 2.06536e-61 2.0554e-61 2.05408e-61 2.06233e-61 2.07969e-61 2.10429e-61 2.13304e-61 2.16183e-61 2.1859e-61 2.20021e-61 2.19989e-61 2.18077e-61 2.13978e-61 2.07532e-61 1.98738e-61 1.87753e-61 1.74873e-61 1.60489e-61 1.45056e-61 1.2905e-61 1.12937e-61 9.71494e-62 8.20706e-62 6.80216e-62 5.52527e-62 4.3937e-62 3.4167e-62 2.59559e-62 1.92446e-62 1.39143e-62 9.80359e-63 6.72696e-63 4.49323e-63 2.92044e-63 1.84662e-63 1.13574e-63 6.79386e-64 3.95271e-64 2.23687e-64 1.23142e-64 6.59576e-65 3.43801e-65 1.74437e-65 8.61736e-66 4.14614e-66 1.94349e-66 8.8783e-67 3.95398e-67 1.7173e-67 7.2764e-68 3.00885e-68 1.21466e-68 4.7889e-69 1.84457e-69 6.9437e-70 2.55549e-70 9.19807e-71 3.23898e-71 1.11624e-71 3.76607e-72 1.24436e-72 4.02779e-73 1.27759e-73 3.97242e-74 1.21113e-74 3.62179e-75 1.06263e-75 3.05982e-76 8.64925e-77 2.40078e-77 6.54535e-78 1.75321e-78 4.6149e-79 1.19406e-79 3.0371e-80 7.57449e-81 1.76238e-81 0 
0 1.30063e-113 9.50519e-113 6.75272e-112 4.74773e-111 3.30437e-110 2.2764e-109 1.55213e-108 1.04732e-107 6.99301e-107 4.61995e-106 3.01963e-105 1.95241e-104 1.24865e-103 7.89795e-103 4.94023e-102 3.05555e-101 1.86849e-100 1.12953e-99 6.7494e-99 3.98597e-98 2.32623e-97 1.34143e-96 7.6422e-96 4.30082e-95 2.39059e-94 1.31227e-93 7.1128e-93 3.80625e-92 2.01061e-91 1.04826e-90 5.39327e-90 2.73785e-89 1.37111e-88 6.77279e-88 3.29932e-87 1.58477e-86 7.50443e-86 3.50268e-85 1.61114e-84 7.30193e-84 3.26007e-83 1.43356e-82 6.20751e-82 2.64631e-81 1.11044e-80 4.58547e-80 1.863e-79 7.44526e-79 2.92608e-78 1.13065e-77 4.29434e-77 1.60282e-76 5.87733e-76 2.11674e-75 7.48568e-75 2.59866e-74 8.85319e-74 2.95907e-73 9.70039e-73 3.11794e-72 9.82326e-72 3.0326e-71 9.17078e-71 2.71571e-70 7.87225e-70 2.23308e-69 6.19647e-69 1.68138e-68 4.45972e-68 1.15587e-67 2.92623e-67 7.23337e-67 1.74517e-66 4.108e-66 9.43085e-66 2.11072e-65 4.6036e-65 9.78104e-65 2.02361e-64 4.07528e-64 7.98577e-64 1.52212e-63 2.82101e-63 5.08207e-63 8.89658e-63 1.51297e-62 2.49889e-62 4.00758e-62 6.23956e-62 9.4298e-62 1.38321e-61 1.96926e-61 2.72119e-61 3.65014e-61 4.75385e-61 6.01318e-61 7.39061e-61 8.8315e-61 1.02686e-60 1.16292e-60 1.28445e-60 1.38586e-60 1.46366e-60 1.51687e-60 1.54712e-60 1.55829e-60 1.55581e-60 1.54581e-60 1.53429e-60 1.5263e-60 1.5255e-60 1.53388e-60 1.55183e-60 1.57833e-60 1.61136e-60 1.6483e-60 1.68644e-60 1.72331e-60 1.75702e-60 1.78636e-60 1.81093e-60 1.83098e-60 1.84727e-60 1.86092e-60 1.87316e-60 1.88523e-60 1.89827e-60 1.91321e-60 1.93068e-60 1.95097e-60 1.97386e-60 1.99855e-60 2.02361e-60 2.04708e-60 2.06658e-60 2.07967e-60 2.08416e-60 2.07848e-60 2.06198e-60 2.03504e-60 1.99907e-60 1.95631e-60 1.90953e-60 1.86162e-60 1.81526e-60 1.77259e-60 1.73495e-60 1.70274e-60 1.67544e-60 1.65168e-60 1.62944e-60 1.60634e-60 1.58007e-60 1.54876e-60 1.51137e-60 1.46804e-60 1.42021e-60 1.37057e-60 1.32281e-60 1.28109e-60 1.24948e-60 1.23127e-60 1.22852e-60 1.24159e-60 1.26911e-60 1.30812e-60 1.35443e-60 1.40325e-60 1.44981e-60 1.48996e-60 1.5207e-60 1.54042e-60 1.54905e-60 1.54791e-60 1.53939e-60 1.52655e-60 1.5127e-60 1.50091e-60 1.49369e-60 1.49272e-60 1.49869e-60 1.51125e-60 1.52905e-60 1.54986e-60 1.5707e-60 1.58812e-60 1.59847e-60 1.59822e-60 1.58435e-60 1.55463e-60 1.50789e-60 1.44412e-60 1.36446e-60 1.27102e-60 1.16666e-60 1.05466e-60 9.3846e-61 8.21445e-61 7.06755e-61 5.97175e-61 4.95043e-61 4.02186e-61 3.19872e-61 2.48781e-61 1.89019e-61 1.40161e-61 1.0135e-61 7.14138e-62 4.90055e-62 3.27345e-62 2.12771e-62 1.3454e-62 8.27481e-63 4.94992e-63 2.87988e-63 1.62972e-63 8.97162e-64 4.80527e-64 2.50465e-64 1.27076e-64 6.27745e-65 3.0202e-65 1.41565e-65 6.46676e-66 2.87987e-66 1.25074e-66 5.29933e-67 2.19124e-67 8.84563e-68 3.48734e-68 1.3432e-68 5.05621e-69 1.86079e-69 6.69749e-70 2.3584e-70 8.12757e-71 2.74213e-71 9.06032e-72 2.93269e-72 9.30236e-73 2.89241e-73 8.81862e-74 2.6372e-74 7.73772e-75 2.22811e-75 6.29845e-76 1.74833e-76 4.76674e-77 1.27685e-77 3.36119e-78 8.69722e-79 2.21228e-79 5.51773e-80 1.2839e-80 0 
0 9.23645e-113 6.7488e-112 4.79354e-111 3.36958e-110 2.34472e-109 1.61497e-108 1.10093e-107 7.42721e-107 4.95823e-106 3.27505e-105 2.14019e-104 1.38353e-103 8.84663e-103 5.59466e-102 3.49888e-101 2.16368e-100 1.32288e-99 7.99565e-99 4.7769e-98 2.82061e-97 1.64585e-96 9.48931e-96 5.40527e-95 3.04147e-94 1.69033e-93 9.27734e-93 5.0278e-92 2.69013e-91 1.42083e-90 7.4067e-90 3.81022e-89 1.93398e-88 9.68411e-88 4.78302e-87 2.32974e-86 1.11892e-85 5.29789e-85 2.47252e-84 1.13718e-83 5.15335e-83 2.30058e-82 1.01155e-81 4.37978e-81 1.86698e-80 7.83359e-80 3.23459e-79 1.31407e-78 5.2512e-78 2.06367e-77 7.97367e-77 3.02835e-76 1.13025e-75 4.14434e-75 1.49255e-74 5.27813e-74 1.83227e-73 6.24211e-73 2.08633e-72 6.83932e-72 2.19832e-71 6.92597e-71 2.13818e-70 6.46607e-70 1.91481e-69 5.55076e-69 1.5746e-68 4.36943e-68 1.18566e-67 3.14501e-67 8.15162e-67 2.06379e-66 5.10176e-66 1.23095e-65 2.89774e-65 6.65285e-65 1.48907e-64 3.24796e-64 6.90124e-64 1.4279e-63 2.8758e-63 5.63569e-63 1.07426e-62 1.99109e-62 3.5872e-62 6.28006e-62 1.06806e-61 1.76415e-61 2.82938e-61 4.40537e-61 6.65806e-61 9.76674e-61 1.39051e-60 1.92151e-60 2.57752e-60 3.35695e-60 4.24629e-60 5.21903e-60 6.23661e-60 7.25152e-60 8.21249e-60 9.0709e-60 9.78734e-60 1.03371e-59 1.07133e-59 1.09274e-59 1.10069e-59 1.09899e-59 1.09198e-59 1.08388e-59 1.07826e-59 1.07769e-59 1.08359e-59 1.09623e-59 1.11488e-59 1.13813e-59 1.16414e-59 1.19099e-59 1.21696e-59 1.24069e-59 1.26136e-59 1.27867e-59 1.2928e-59 1.30429e-59 1.31391e-59 1.32255e-59 1.33107e-59 1.34026e-59 1.35078e-59 1.36309e-59 1.37737e-59 1.39348e-59 1.41084e-59 1.42847e-59 1.44498e-59 1.45869e-59 1.46789e-59 1.47104e-59 1.46703e-59 1.45541e-59 1.43644e-59 1.41112e-59 1.38102e-59 1.34809e-59 1.31437e-59 1.28175e-59 1.25172e-59 1.22523e-59 1.20257e-59 1.18336e-59 1.16664e-59 1.15097e-59 1.1347e-59 1.11619e-59 1.09412e-59 1.06776e-59 1.03721e-59 1.00348e-59 9.6849e-60 9.34816e-60 9.05399e-60 8.83103e-60 8.70263e-60 8.68313e-60 8.77519e-60 8.96913e-60 9.24401e-60 9.57043e-60 9.91461e-60 1.02429e-59 1.05261e-59 1.07429e-59 1.08821e-59 1.09432e-59 1.09354e-59 1.08756e-59 1.07853e-59 1.06878e-59 1.06048e-59 1.05539e-59 1.0547e-59 1.05889e-59 1.06772e-59 1.08025e-59 1.09488e-59 1.10955e-59 1.12181e-59 1.12908e-59 1.1289e-59 1.11912e-59 1.09817e-59 1.06522e-59 1.02027e-59 9.64101e-60 8.98213e-60 8.246e-60 7.45574e-60 6.63561e-60 5.80943e-60 4.99937e-60 4.22511e-60 3.50321e-60 2.84663e-60 2.26442e-60 1.76143e-60 1.33849e-60 9.92636e-61 7.17845e-61 5.05854e-61 3.4715e-61 2.31901e-61 1.50738e-61 9.53177e-62 5.86252e-62 3.50691e-62 2.04031e-62 1.15459e-62 6.35584e-63 3.40413e-63 1.77427e-63 9.00154e-64 4.4465e-64 2.13919e-64 1.00265e-64 4.57993e-65 2.0395e-65 8.85721e-66 3.75259e-66 1.5516e-66 6.26325e-67 2.46915e-67 9.50996e-68 3.5797e-68 1.31737e-68 4.74142e-69 1.66957e-69 5.75359e-70 1.94116e-70 6.41373e-71 2.07602e-71 6.58502e-72 2.04751e-72 6.24267e-73 1.86689e-73 5.47767e-74 1.57736e-74 4.45902e-75 1.23778e-75 3.37487e-76 9.04057e-77 2.37995e-77 6.15854e-78 1.56661e-78 3.90758e-79 9.09294e-80 0 
0 6.49139e-112 4.74214e-111 3.36756e-110 2.36673e-109 1.64656e-108 1.13388e-107 7.72813e-107 5.21265e-106 3.47918e-105 2.29766e-104 1.50121e-103 9.70277e-103 6.20306e-102 3.92215e-101 2.45246e-100 1.51632e-99 9.2692e-99 5.60149e-98 3.34598e-97 1.97537e-96 1.15246e-95 6.64357e-95 3.78371e-94 2.12871e-93 1.18288e-92 6.49125e-92 3.51739e-91 1.88172e-90 9.93725e-90 5.17952e-89 2.66415e-88 1.35209e-87 6.76957e-87 3.34312e-86 1.6282e-85 7.819e-85 3.70176e-84 1.72743e-83 7.94415e-83 3.59971e-82 1.60685e-81 7.06463e-81 3.05857e-80 1.30369e-79 5.46969e-79 2.25835e-78 9.17411e-78 3.66589e-77 1.44058e-76 5.56591e-76 2.11381e-75 7.88897e-75 2.89258e-74 1.04171e-73 3.68375e-73 1.27877e-72 4.35642e-72 1.45606e-71 4.7732e-71 1.53423e-70 4.83375e-70 1.4923e-69 4.51295e-69 1.33646e-68 3.87434e-68 1.09908e-67 3.05002e-67 8.27675e-67 2.19554e-66 5.69099e-66 1.4409e-65 3.56218e-65 8.59538e-65 2.02355e-64 4.64614e-64 1.03999e-63 2.2686e-63 4.82067e-63 9.97496e-63 2.00911e-62 3.93754e-62 7.50617e-62 1.39134e-61 2.50684e-61 4.38898e-61 7.46486e-61 1.23307e-60 1.97773e-60 3.07949e-60 4.6544e-60 6.82781e-60 9.72124e-60 1.34338e-59 1.80206e-59 2.34703e-59 2.96886e-59 3.64902e-59 4.36053e-59 5.0702e-59 5.74218e-59 6.34248e-59 6.84358e-59 7.22818e-59 7.49152e-59 7.64161e-59 7.69752e-59 7.68601e-59 7.63734e-59 7.58095e-59 7.54178e-59 7.53781e-59 7.57891e-59 7.66694e-59 7.79695e-59 7.95898e-59 8.14028e-59 8.32747e-59 8.50849e-59 8.67398e-59 8.81813e-59 8.93887e-59 9.03743e-59 9.11762e-59 9.18482e-59 9.24513e-59 9.3046e-59 9.36876e-59 9.44216e-59 9.52796e-59 9.62749e-59 9.73968e-59 9.86064e-59 9.98341e-59 1.00983e-58 1.01938e-58 1.02578e-58 1.02796e-58 1.02516e-58 1.01706e-58 1.00384e-58 9.8619e-59 9.65216e-59 9.4227e-59 9.18776e-59 8.96048e-59 8.7513e-59 8.56675e-59 8.40887e-59 8.27505e-59 8.15852e-59 8.04933e-59 7.93587e-59 7.80672e-59 7.65267e-59 7.46869e-59 7.25545e-59 7.02006e-59 6.7758e-59 6.54074e-59 6.33539e-59 6.17973e-59 6.09006e-59 6.07639e-59 6.14059e-59 6.27589e-59 6.46768e-59 6.69547e-59 6.93569e-59 7.16484e-59 7.36256e-59 7.51398e-59 7.6113e-59 7.65411e-59 7.64884e-59 7.60725e-59 7.5444e-59 7.47647e-59 7.41858e-59 7.38307e-59 7.37818e-59 7.40732e-59 7.4688e-59 7.55602e-59 7.65798e-59 7.76014e-59 7.84553e-59 7.8962e-59 7.89484e-59 7.82654e-59 7.68034e-59 7.45041e-59 7.13668e-59 6.74464e-59 6.28463e-59 5.77057e-59 5.21853e-59 4.64543e-59 4.0679e-59 3.50143e-59 2.95978e-59 2.45457e-59 1.99492e-59 1.58718e-59 1.23483e-59 9.38461e-60 6.96058e-60 5.03421e-60 3.54783e-60 2.43491e-60 1.62663e-60 1.05737e-60 6.68629e-61 4.11244e-61 2.46002e-61 1.43121e-61 8.09887e-62 4.45817e-62 2.38766e-62 1.24442e-62 6.31312e-63 3.11834e-63 1.50014e-63 7.03085e-64 3.21138e-64 1.42999e-64 6.20986e-65 2.63082e-65 1.08772e-65 4.39052e-66 1.73078e-66 6.66582e-67 2.50902e-67 9.23308e-68 3.32303e-68 1.17008e-68 4.03218e-69 1.36035e-69 4.49463e-70 1.45482e-70 4.61458e-71 1.43483e-71 4.37466e-72 1.30826e-72 3.83865e-73 1.1054e-73 3.12491e-74 8.67469e-75 2.36528e-75 6.3363e-76 1.66812e-76 4.31674e-77 1.09815e-77 2.73925e-78 6.37458e-79 0 
0 4.51605e-111 3.29845e-110 2.34188e-109 1.64555e-108 1.1446e-107 7.88059e-107 5.37011e-106 3.62147e-105 2.41669e-104 1.59569e-103 1.04237e-102 6.73596e-102 4.30558e-101 2.72191e-100 1.70167e-99 1.05194e-98 6.42935e-98 3.88469e-97 2.32009e-96 1.3695e-95 7.98858e-95 4.60444e-94 2.62196e-93 1.47489e-92 8.19446e-92 4.49621e-91 2.43601e-90 1.30303e-89 6.88029e-89 3.5857e-88 1.84412e-87 9.358e-87 4.68475e-86 2.31328e-85 1.12651e-84 5.4092e-84 2.56062e-83 1.1948e-82 5.49415e-82 2.48933e-81 1.1111e-80 4.88464e-80 2.1146e-79 9.01266e-79 3.78106e-78 1.56104e-77 6.34107e-77 2.53371e-76 9.95624e-76 3.84658e-75 1.4608e-74 5.45167e-74 1.99887e-73 7.19843e-73 2.5455e-72 8.83632e-72 3.01029e-71 1.00614e-70 3.29831e-70 1.06018e-69 3.34026e-69 1.03124e-68 3.11875e-68 9.23617e-68 2.67762e-67 7.59629e-67 2.10812e-66 5.72106e-66 1.51769e-65 3.9342e-65 9.96167e-65 2.46289e-64 5.94327e-64 1.39929e-63 3.21307e-63 7.19271e-63 1.56912e-62 3.33459e-62 6.90052e-62 1.38999e-61 2.72438e-61 5.19394e-61 9.62822e-61 1.73489e-60 3.03767e-60 5.16688e-60 8.53538e-60 1.36908e-59 2.13188e-59 3.22231e-59 4.72719e-59 6.73067e-59 9.30143e-59 1.24775e-58 1.62513e-58 2.05572e-58 2.52671e-58 3.01942e-58 3.51086e-58 3.97622e-58 4.39198e-58 4.73908e-58 5.00555e-58 5.18809e-58 5.29225e-58 5.33122e-58 5.3235e-58 5.29003e-58 5.25114e-58 5.2241e-58 5.22135e-58 5.24969e-58 5.31043e-58 5.40014e-58 5.51197e-58 5.63712e-58 5.76634e-58 5.89131e-58 6.00557e-58 6.10511e-58 6.1885e-58 6.2566e-58 6.31203e-58 6.35849e-58 6.4002e-58 6.44132e-58 6.48566e-58 6.53636e-58 6.59559e-58 6.66428e-58 6.74168e-58 6.8251e-58 6.90976e-58 6.98898e-58 7.05479e-58 7.0989e-58 7.11391e-58 7.09455e-58 7.03858e-58 6.94731e-58 6.82553e-58 6.68079e-58 6.52245e-58 6.36035e-58 6.20354e-58 6.05922e-58 5.93192e-58 5.82301e-58 5.73069e-58 5.65028e-58 5.57491e-58 5.49656e-58 5.40734e-58 5.30088e-58 5.17372e-58 5.02633e-58 4.86362e-58 4.69477e-58 4.53228e-58 4.39033e-58 4.28271e-58 4.2207e-58 4.21121e-58 4.25554e-58 4.34901e-58 4.48154e-58 4.63896e-58 4.80499e-58 4.96339e-58 5.1001e-58 5.20483e-58 5.27219e-58 5.30189e-58 5.29836e-58 5.26973e-58 5.22639e-58 5.17951e-58 5.13954e-58 5.115e-58 5.11158e-58 5.13164e-58 5.17403e-58 5.23418e-58 5.30452e-58 5.375e-58 5.43391e-58 5.46884e-58 5.46786e-58 5.42064e-58 5.3196e-58 5.16071e-58 4.94388e-58 4.67288e-58 4.35484e-58 3.99932e-58 3.61742e-58 3.22083e-58 2.82102e-58 2.42871e-58 2.05345e-58 1.7033e-58 1.3846e-58 1.1018e-58 8.57343e-59 6.51669e-59 4.83403e-59 3.49656e-59 2.46439e-59 1.69145e-59 1.13002e-59 7.34576e-60 4.64519e-60 2.85706e-60 1.70905e-60 9.94284e-61 5.62626e-61 3.09696e-61 1.65857e-61 8.64382e-62 4.38489e-62 2.16577e-62 1.04183e-62 4.88252e-63 2.22998e-63 9.9292e-64 4.31157e-64 1.82649e-64 7.55123e-65 3.04783e-65 1.20141e-65 4.6268e-66 1.74144e-66 6.40814e-67 2.30622e-67 8.12018e-68 2.79818e-68 9.44006e-69 3.11894e-69 1.00951e-69 3.20206e-70 9.95618e-71 3.03554e-71 9.07791e-72 2.66362e-72 7.67038e-73 2.16842e-73 6.0196e-74 1.64137e-74 4.39718e-75 1.15766e-75 2.9959e-76 7.6217e-77 1.90127e-77 4.42471e-78 0 
0 3.10977e-110 2.27089e-109 1.612e-108 1.13246e-107 7.8756e-107 5.42132e-106 3.69357e-105 2.49038e-104 1.66158e-103 1.0969e-102 7.16415e-102 4.62874e-101 2.95814e-100 1.86975e-99 1.16872e-98 7.22358e-98 4.41425e-97 2.6667e-96 1.5924e-95 9.39811e-95 5.48128e-94 3.15881e-93 1.79849e-92 1.01153e-91 5.61922e-91 3.08277e-90 1.66999e-89 8.93164e-89 4.71551e-88 2.4572e-87 1.26358e-86 6.41129e-86 3.20922e-85 1.5845e-84 7.71532e-84 3.70431e-83 1.75339e-82 8.18061e-82 3.76143e-81 1.70411e-80 7.60563e-80 3.34334e-79 1.44726e-78 6.16796e-78 2.58747e-77 1.0682e-76 4.33889e-76 1.73361e-75 6.81198e-75 2.63171e-74 9.99402e-74 3.72966e-73 1.36746e-72 4.92452e-72 1.74139e-71 6.04496e-71 2.05936e-70 6.88313e-70 2.25645e-69 7.25306e-69 2.28526e-68 7.05554e-68 2.13386e-67 6.31968e-67 1.8322e-66 5.19815e-66 1.44268e-65 3.9154e-65 1.03875e-64 2.69288e-64 6.81908e-64 1.68606e-63 4.06901e-63 9.58093e-63 2.20018e-62 4.92573e-62 1.07467e-61 2.28402e-61 4.72693e-61 9.52244e-61 1.86657e-60 3.55887e-60 6.59779e-60 1.18894e-59 2.08192e-59 3.54147e-59 5.85071e-59 9.38515e-59 1.46151e-58 2.20917e-58 3.24104e-58 4.61483e-58 6.37765e-58 8.55561e-58 1.11434e-57 1.40962e-57 1.7326e-57 2.07048e-57 2.4075e-57 2.72664e-57 3.01178e-57 3.24986e-57 3.43269e-57 3.55799e-57 3.62957e-57 3.65645e-57 3.65133e-57 3.62852e-57 3.60197e-57 3.58348e-57 3.58157e-57 3.60092e-57 3.64242e-57 3.70373e-57 3.78015e-57 3.86569e-57 3.95402e-57 4.03944e-57 4.11756e-57 4.18562e-57 4.24266e-57 4.28925e-57 4.32718e-57 4.35899e-57 4.38755e-57 4.41571e-57 4.44605e-57 4.48073e-57 4.52122e-57 4.56815e-57 4.62102e-57 4.67799e-57 4.7358e-57 4.78989e-57 4.83481e-57 4.8649e-57 4.87513e-57 4.86186e-57 4.82359e-57 4.76121e-57 4.67798e-57 4.57908e-57 4.4709e-57 4.36014e-57 4.25301e-57 4.15443e-57 4.06747e-57 3.99307e-57 3.93001e-57 3.87508e-57 3.82357e-57 3.76999e-57 3.70896e-57 3.63611e-57 3.54909e-57 3.4482e-57 3.33684e-57 3.22126e-57 3.11004e-57 3.01287e-57 2.93919e-57 2.89673e-57 2.8902e-57 2.92051e-57 2.98446e-57 3.07514e-57 3.18287e-57 3.2965e-57 3.40493e-57 3.49852e-57 3.57025e-57 3.61642e-57 3.63682e-57 3.63448e-57 3.61496e-57 3.58536e-57 3.55333e-57 3.526e-57 3.5092e-57 3.50684e-57 3.52051e-57 3.54945e-57 3.59054e-57 3.63858e-57 3.68673e-57 3.72698e-57 3.75083e-57 3.75013e-57 3.7178e-57 3.64866e-57 3.53993e-57 3.39154e-57 3.20605e-57 2.9883e-57 2.74483e-57 2.48322e-57 2.21144e-57 1.93735e-57 1.6683e-57 1.41084e-57 1.17052e-57 9.51696e-58 7.57457e-58 5.89495e-58 4.48142e-58 3.3247e-58 2.40508e-58 1.69525e-58 1.16362e-58 7.77427e-59 5.05386e-59 3.19592e-59 1.96568e-59 1.17582e-59 6.8405e-60 3.87063e-60 2.13049e-60 1.14092e-60 5.94571e-61 3.01599e-61 1.48955e-61 7.16488e-62 3.35758e-62 1.53339e-62 6.82708e-63 2.96432e-63 1.25567e-63 5.19095e-64 2.09503e-64 8.25781e-65 3.18e-65 1.19682e-65 4.40381e-66 1.58481e-66 5.57983e-67 1.9227e-67 6.48628e-68 2.14296e-68 6.93598e-69 2.19996e-69 6.84024e-70 2.08549e-70 6.23672e-71 1.82996e-71 5.26973e-72 1.48977e-72 4.1357e-73 1.12771e-73 3.02116e-74 7.95413e-75 2.05852e-75 5.23718e-76 1.3065e-76 3.04067e-77 0 
0 2.11937e-109 1.54736e-108 1.09818e-107 7.71346e-107 5.36321e-106 3.69116e-105 2.51433e-104 1.69496e-103 1.13067e-102 7.46285e-102 4.8733e-101 3.14807e-100 2.01152e-99 1.2712e-98 7.94454e-98 4.9095e-97 2.99965e-96 1.81183e-95 1.08175e-94 6.38333e-94 3.7224e-93 2.14486e-92 1.22101e-91 6.86638e-91 3.81386e-90 2.09205e-89 1.13315e-88 6.05965e-88 3.19882e-87 1.66667e-86 8.5696e-86 4.34764e-85 2.176e-84 1.07425e-83 5.23026e-83 2.51093e-82 1.1884e-81 5.54413e-81 2.54897e-80 1.15471e-79 5.15322e-79 2.26513e-78 9.80461e-78 4.1783e-77 1.75271e-76 7.23545e-76 2.93881e-75 1.17416e-74 4.61354e-74 1.78232e-73 6.76828e-73 2.52581e-72 9.26065e-72 3.33493e-71 1.17929e-70 4.09373e-70 1.39464e-69 4.66148e-69 1.52818e-68 4.91226e-68 1.54778e-67 4.77885e-67 1.44537e-66 4.28085e-66 1.24117e-65 3.52156e-65 9.77427e-65 2.65291e-64 7.03871e-64 1.82487e-63 4.62144e-63 1.14278e-62 2.75816e-62 6.495e-62 1.49167e-61 3.33985e-61 7.28742e-61 1.54897e-60 3.20603e-60 6.45921e-60 1.26625e-59 2.41451e-59 4.47668e-59 8.06785e-59 1.41286e-58 2.40355e-58 3.97111e-58 6.37051e-58 9.92115e-58 1.49973e-57 2.20034e-57 3.13314e-57 4.33012e-57 5.80901e-57 7.56622e-57 9.57128e-57 1.17645e-56 1.40588e-56 1.63473e-56 1.85145e-56 2.0451e-56 2.20681e-56 2.33101e-56 2.41617e-56 2.46487e-56 2.48323e-56 2.47986e-56 2.46447e-56 2.44651e-56 2.43399e-56 2.43268e-56 2.44576e-56 2.47383e-56 2.51531e-56 2.56702e-56 2.62491e-56 2.68469e-56 2.74251e-56 2.79538e-56 2.84146e-56 2.88009e-56 2.91164e-56 2.93735e-56 2.95891e-56 2.97827e-56 2.99736e-56 3.01792e-56 3.0414e-56 3.0688e-56 3.10056e-56 3.13631e-56 3.17484e-56 3.21392e-56 3.25049e-56 3.28085e-56 3.30118e-56 3.30807e-56 3.29907e-56 3.27317e-56 3.23095e-56 3.17464e-56 3.10772e-56 3.03453e-56 2.95961e-56 2.88714e-56 2.82046e-56 2.76165e-56 2.71134e-56 2.66869e-56 2.63153e-56 2.59667e-56 2.5604e-56 2.51906e-56 2.46971e-56 2.41074e-56 2.34238e-56 2.2669e-56 2.18858e-56 2.11319e-56 2.04733e-56 1.99739e-56 1.96859e-56 1.96416e-56 1.98468e-56 2.02799e-56 2.08943e-56 2.16243e-56 2.23943e-56 2.31292e-56 2.37636e-56 2.425e-56 2.45633e-56 2.4702e-56 2.46867e-56 2.45549e-56 2.43548e-56 2.4138e-56 2.3953e-56 2.38392e-56 2.3823e-56 2.39153e-56 2.41109e-56 2.43887e-56 2.47137e-56 2.50394e-56 2.53117e-56 2.5473e-56 2.5468e-56 2.52489e-56 2.47805e-56 2.40438e-56 2.30382e-56 2.17811e-56 2.03049e-56 1.8654e-56 1.68795e-56 1.50353e-56 1.31748e-56 1.13477e-56 9.59866e-57 7.96532e-57 6.47758e-57 5.15648e-57 4.01374e-57 3.05175e-57 2.26433e-57 1.63818e-57 1.15479e-57 7.92702e-58 5.29636e-58 3.44313e-58 2.17736e-58 1.3392e-58 8.01063e-59 4.66016e-59 2.6368e-59 1.45129e-59 7.77151e-60 4.04973e-60 2.05411e-60 1.01442e-60 4.87907e-61 2.28624e-61 1.04403e-61 4.64794e-62 2.01797e-62 8.54739e-63 3.53321e-63 1.42587e-63 5.61984e-64 2.16399e-64 8.14384e-65 2.99641e-65 1.07826e-65 3.79616e-66 1.30802e-66 4.41244e-67 1.45774e-67 4.718e-68 1.49642e-68 4.65262e-69 1.41849e-69 4.24198e-70 1.24466e-70 3.58423e-71 1.01327e-71 2.81294e-72 7.67032e-73 2.05494e-73 5.41038e-74 1.40024e-74 3.56254e-75 8.88766e-76 2.06854e-76 0 
0 1.42939e-108 1.0434e-107 7.40373e-107 5.19927e-106 3.61439e-105 2.48709e-104 1.69383e-103 1.14164e-102 7.6142e-102 5.02476e-101 3.28062e-100 2.11886e-99 1.35365e-98 8.5531e-98 5.34447e-97 3.30219e-96 2.01728e-95 1.21827e-94 7.27254e-94 4.29081e-93 2.50178e-92 1.44133e-91 8.20392e-91 4.61285e-90 2.56181e-89 1.40506e-88 7.60947e-88 4.06875e-87 2.14758e-86 1.11882e-85 5.75201e-85 2.91786e-84 1.46024e-83 7.20821e-83 3.50915e-82 1.6845e-81 7.97192e-81 3.71874e-80 1.70959e-79 7.74407e-79 3.45576e-78 1.5189e-77 6.57418e-77 2.80148e-76 1.1751e-75 4.85079e-75 1.97016e-74 7.87125e-74 3.0927e-73 1.19476e-72 4.53696e-72 1.6931e-71 6.20757e-71 2.23546e-70 7.90502e-70 2.74415e-69 9.34889e-69 3.12487e-68 1.02446e-67 3.29321e-67 1.03769e-66 3.20406e-66 9.69124e-66 2.8705e-65 8.32318e-65 2.36169e-64 6.55548e-64 1.77942e-63 4.72157e-63 1.22424e-62 3.10064e-62 7.66794e-62 1.85089e-61 4.35898e-61 1.00121e-60 2.24195e-60 4.89239e-60 1.04001e-59 2.15283e-59 4.33781e-59 8.50465e-59 1.62185e-58 3.00735e-58 5.42036e-58 9.49314e-58 1.61511e-57 2.66868e-57 4.28147e-57 6.66822e-57 1.00806e-56 1.47906e-56 2.10618e-56 2.91093e-56 3.90524e-56 5.08668e-56 6.43477e-56 7.90934e-56 9.45194e-56 1.09906e-55 1.24478e-55 1.37499e-55 1.48373e-55 1.56727e-55 1.62458e-55 1.65738e-55 1.66979e-55 1.66759e-55 1.65731e-55 1.64528e-55 1.63688e-55 1.63599e-55 1.64474e-55 1.66354e-55 1.69132e-55 1.72597e-55 1.76475e-55 1.8048e-55 1.84355e-55 1.87899e-55 1.90987e-55 1.93576e-55 1.95693e-55 1.97417e-55 1.98864e-55 2.00164e-55 2.01444e-55 2.02824e-55 2.04398e-55 2.06234e-55 2.08361e-55 2.10755e-55 2.13334e-55 2.15951e-55 2.18398e-55 2.20429e-55 2.21789e-55 2.22249e-55 2.21645e-55 2.19909e-55 2.1708e-55 2.13308e-55 2.08825e-55 2.03923e-55 1.98905e-55 1.94052e-55 1.89587e-55 1.85649e-55 1.82281e-55 1.79425e-55 1.76937e-55 1.74602e-55 1.72171e-55 1.69399e-55 1.66089e-55 1.62133e-55 1.57546e-55 1.52482e-55 1.47226e-55 1.42168e-55 1.37748e-55 1.34396e-55 1.32463e-55 1.32164e-55 1.3354e-55 1.36445e-55 1.40566e-55 1.45463e-55 1.50629e-55 1.55561e-55 1.59819e-55 1.63084e-55 1.65189e-55 1.66123e-55 1.66024e-55 1.65143e-55 1.63803e-55 1.6235e-55 1.6111e-55 1.60346e-55 1.60236e-55 1.60853e-55 1.62163e-55 1.64023e-55 1.66199e-55 1.68381e-55 1.70204e-55 1.71284e-55 1.7125e-55 1.6978e-55 1.66637e-55 1.61696e-55 1.54949e-55 1.46514e-55 1.36606e-55 1.25523e-55 1.13605e-55 1.01216e-55 8.87112e-56 7.64266e-56 6.46615e-56 5.36703e-56 4.3655e-56 3.47582e-56 2.706e-56 2.05775e-56 1.527e-56 1.10486e-56 7.78907e-57 5.34711e-57 3.57277e-57 2.32269e-57 1.46883e-57 9.03406e-58 5.40375e-58 3.1435e-58 1.77857e-58 9.78867e-59 5.24141e-59 2.7311e-59 1.38517e-59 6.84008e-60 3.28961e-60 1.54132e-60 7.03793e-61 3.13295e-61 1.3601e-61 5.76037e-62 2.38094e-62 9.6078e-63 3.78644e-63 1.4579e-63 5.48619e-64 2.01842e-64 7.26281e-65 2.55681e-65 8.80935e-66 2.97156e-66 9.81668e-67 3.17705e-67 1.00763e-67 3.13281e-68 9.55105e-69 2.85617e-69 8.38028e-70 2.41323e-70 6.82225e-71 1.89392e-71 5.16438e-72 1.38359e-72 3.64288e-73 9.42822e-74 2.39883e-74 5.98468e-75 1.39294e-75 0 
0 9.53928e-108 6.96204e-107 4.93914e-106 3.46785e-105 2.4103e-104 1.65823e-103 1.12913e-102 7.60893e-102 5.0739e-101 3.34777e-100 2.18535e-99 1.41121e-98 9.01412e-98 5.69466e-97 3.55777e-96 2.19788e-95 1.34245e-94 8.10607e-94 4.83823e-93 2.85414e-92 1.66388e-91 9.58455e-91 5.45469e-90 3.06661e-89 1.70286e-88 9.33838e-88 5.05679e-87 2.70351e-86 1.42681e-85 7.43235e-85 3.82066e-84 1.93793e-83 9.69735e-83 4.78646e-82 2.32996e-81 1.11836e-80 5.29217e-80 2.4685e-79 1.13474e-78 5.13977e-78 2.29345e-77 1.00798e-76 4.36253e-76 1.85893e-75 7.79708e-75 3.21849e-74 1.30716e-73 5.22225e-73 2.05184e-72 7.92646e-72 3.00995e-71 1.12325e-70 4.11828e-70 1.48308e-69 5.24454e-69 1.82063e-68 6.20276e-68 2.07335e-67 6.79756e-67 2.18523e-66 6.88599e-66 2.1263e-65 6.43178e-65 1.9052e-64 5.52464e-64 1.56774e-63 4.35203e-63 1.18142e-62 3.13513e-62 8.12975e-62 2.05925e-61 5.09312e-61 1.22951e-60 2.89593e-60 6.6524e-60 1.48981e-59 3.25146e-59 6.9127e-59 1.43111e-58 2.88392e-58 5.65485e-58 1.07851e-57 2.00007e-57 3.60526e-57 6.31484e-57 1.07448e-56 1.77554e-56 2.84879e-56 4.43721e-56 6.70836e-56 9.8433e-56 1.40175e-55 1.93742e-55 2.59928e-55 3.38572e-55 4.28309e-55 5.26465e-55 6.2915e-55 7.31575e-55 8.28576e-55 9.15256e-55 9.87654e-55 1.04328e-54 1.08146e-54 1.10333e-54 1.11163e-54 1.11021e-54 1.10341e-54 1.09543e-54 1.08985e-54 1.08925e-54 1.09504e-54 1.1075e-54 1.12592e-54 1.1489e-54 1.17462e-54 1.20119e-54 1.22689e-54 1.2504e-54 1.2709e-54 1.28808e-54 1.30213e-54 1.31358e-54 1.3232e-54 1.33183e-54 1.34034e-54 1.3495e-54 1.35994e-54 1.37212e-54 1.38623e-54 1.4021e-54 1.41919e-54 1.43653e-54 1.45274e-54 1.4662e-54 1.4752e-54 1.47824e-54 1.47423e-54 1.46271e-54 1.44395e-54 1.41893e-54 1.38921e-54 1.3567e-54 1.32343e-54 1.29126e-54 1.26166e-54 1.23556e-54 1.21323e-54 1.1943e-54 1.17781e-54 1.16232e-54 1.1462e-54 1.1278e-54 1.10582e-54 1.07954e-54 1.04908e-54 1.01544e-54 9.8053e-55 9.46928e-55 9.17566e-55 8.95297e-55 8.82451e-55 8.80457e-55 8.89586e-55 9.08874e-55 9.36241e-55 9.68763e-55 1.00308e-54 1.03584e-54 1.06413e-54 1.08583e-54 1.09983e-54 1.10605e-54 1.10542e-54 1.09959e-54 1.0907e-54 1.08107e-54 1.07284e-54 1.06777e-54 1.06703e-54 1.07111e-54 1.07978e-54 1.09212e-54 1.10655e-54 1.12101e-54 1.1331e-54 1.14026e-54 1.14002e-54 1.13026e-54 1.10939e-54 1.07658e-54 1.03177e-54 9.75734e-55 9.09905e-55 8.36237e-55 7.57001e-55 6.74596e-55 5.91394e-55 5.0962e-55 4.3127e-55 3.58043e-55 2.91291e-55 2.31972e-55 1.80626e-55 1.37376e-55 1.01956e-55 7.37783e-56 5.20167e-56 3.57111e-56 2.3862e-56 1.55133e-56 9.81038e-57 6.03381e-57 3.60904e-57 2.09939e-57 1.18776e-57 6.53663e-58 3.49984e-58 1.82349e-58 9.24766e-59 4.56617e-59 2.19582e-59 1.02873e-59 4.69691e-60 2.09064e-60 9.07515e-61 3.84319e-61 1.58836e-61 6.4089e-62 2.52552e-62 9.72323e-63 3.65861e-63 1.34593e-63 4.84264e-64 1.70469e-64 5.87302e-65 1.98096e-65 6.54381e-66 2.11772e-66 6.71625e-67 2.08805e-67 6.36565e-68 1.90354e-68 5.58505e-69 1.60828e-69 4.54657e-70 1.26216e-70 3.44168e-71 9.2207e-72 2.42775e-72 6.28342e-73 1.59873e-73 3.98867e-74 9.28391e-75 0 