# vtk DataFile Version 3.0
Gray-Scott Simulation Output
ASCII
DATASET STRUCTURED_POINTS
DIMENSIONS 256 256 1
SPACING 1.0 1.0 1.0
ORIGIN 0 0 0
POINT_DATA 65536
SCALARS u double
LOOKUP_TABLE default
0 0 0 0 0 0 0 0 0 0 0 0 0 0 0 0 0 0 0 0 0 0 0 0 0 0 0 0 0 0 0 0 0 0 0 0 0 0 0 0 0 0 0 0 0 0 0 0 0 0 0 0 0 0 0 0 0 0 0 0 0 0 0 0 0 0 0 0 0 0 0 0 0 0 0 0 0 0 0 0 0 0 0 0 0 0 0 0 0 0 0 0 0 0 0 0 0 0 0 0 0 0 0 0 0 0 0 0 0 0 0 0 0 0 0 0 0 0 0 0 0 0 0 0 0 0 0 0 0 0 0 0 0 0 0 0 0 0 0 0 0 0 0 0 0 0 0 0 0 0 0 0 0 0 0 0 0 0 0 0 0 0 0 0 0 0 0 0 0 0 0 0 0 0 0 0 0 0 0 0 0 0 0 0 0 0 0 0 0 0 0 0 0 0 0 0 0 0 0 0 0 0 0 0 0 0 0 0 0 0 0 0 0 0 0 0 0 0 0 0 0 0 0 0 0 0 0 0 0 0 0 0 0 0 0 0 0 0 0 0 0 0 0 0 0 0 0 0 0 0 0 0 0 0 0 0 
0 2.01556e-77 7.22006e-77 2.37023e-76 7.66521e-76 2.45701e-75 7.81011e-75 2.4619e-74 7.6953e-74 2.38504e-73 7.3292e-73 2.23296e-72 6.74443e-72 2.01939e-71 5.99351e-71 1.76319e-70 5.14102e-70 1.4856e-69 4.25429e-69 1.20726e-68 3.3946e-68 9.45726e-68 2.61036e-67 7.13779e-67 1.93341e-66 5.18743e-66 1.37853e-65 3.62814e-65 9.45638e-65 2.44065e-64 6.23724e-64 1.57817e-63 3.95327e-63 9.80314e-63 2.40628e-62 5.84608e-62 1.40568e-61 3.34481e-61 7.87571e-61 1.83485e-60 4.22932e-60 9.64404e-60 2.17536e-59 4.85339e-59 1.07094e-58 2.33698e-58 5.04279e-58 1.07591e-57 2.26948e-57 4.73246e-57 9.75471e-57 1.98732e-56 4.00136e-56 7.96142e-56 1.56522e-55 3.04034e-55 5.83428e-55 1.10593e-54 2.07063e-54 3.82887e-54 6.99179e-54 1.2607e-53 2.24442e-53 3.94475e-53 6.84411e-53 1.17208e-52 1.98106e-52 3.30446e-52 5.43907e-52 8.83349e-52 1.41542e-51 2.23744e-51 3.48891e-51 5.36624e-51 8.14066e-51 1.21795e-50 1.797e-50 2.61453e-50 3.75095e-50 5.30606e-50 7.40061e-50 1.01769e-49 1.37977e-49 1.84432e-49 2.43056e-49 3.15805e-49 4.04567e-49 5.11021e-49 6.36488e-49 7.81775e-49 9.4702e-49 1.13156e-48 1.33386e-48 1.55145e-48 1.78099e-48 2.01835e-48 2.25882e-48 2.49732e-48 2.72873e-48 2.94814e-48 3.15121e-48 3.33442e-48 3.49525e-48 3.63233e-48 3.74547e-48 3.83561e-48 3.90465e-48 3.95527e-48 3.99067e-48 4.0143e-48 4.0296e-48 4.0398e-48 4.04769e-48 4.05554e-48 4.06504e-48 4.07731e-48 4.0929e-48 4.11194e-48 4.1342e-48 4.15922e-48 4.18641e-48 4.21514e-48 4.2448e-48 4.27487e-48 4.30487e-48 4.33442e-48 4.3632e-48 4.3909e-48 4.4172e-48 4.44174e-48 4.4641e-48 4.48381e-48 4.50031e-48 4.51302e-48 4.52137e-48 4.52481e-48 4.52287e-48 4.51524e-48 4.50173e-48 4.48238e-48 4.45737e-48 4.42707e-48 4.39202e-48 4.35282e-48 4.31015e-48 4.26466e-48 4.217e-48 4.16772e-48 4.11728e-48 4.06606e-48 4.0144e-48 3.9626e-48 3.91098e-48 3.85994e-48 3.80999e-48 3.76177e-48 3.71605e-48 3.67372e-48 3.63572e-48 3.60301e-48 3.57642e-48 3.55663e-48 3.54409e-48 3.53892e-48 3.54088e-48 3.54944e-48 3.5637e-48 3.58258e-48 3.60478e-48 3.629e-48 3.65394e-48 3.67849e-48 3.70173e-48 3.72299e-48 3.7419e-48 3.75832e-48 3.7723e-48 3.78403e-48 3.79369e-48 3.80142e-48 3.80718e-48 3.81069e-48 3.81139e-48 3.80843e-48 3.80065e-48 3.78665e-48 3.76484e-48 3.73354e-48 3.69106e-48 3.63584e-48 3.56653e-48 3.48206e-48 3.3818e-48 3.26554e-48 3.13358e-48 2.98673e-48 2.82629e-48 2.65406e-48 2.47222e-48 2.28331e-48 2.09011e-48 1.89553e-48 1.70248e-48 1.5138e-48 1.33211e-48 1.15971e-48 9.98545e-49 8.50083e-49 7.15342e-49 5.94857e-49 4.88716e-49 3.966e-49 3.17846e-49 2.51521e-49 1.96497e-49 1.51532e-49 1.15337e-49 8.66379e-50 6.42219e-50 4.6975e-50 3.39029e-50 2.41421e-50 1.69618e-50 1.17577e-50 8.04124e-51 5.42599e-51 3.61241e-51 2.37295e-51 1.53804e-51 9.83672e-52 6.20811e-52 3.86649e-52 2.37655e-52 1.4417e-52 8.63244e-53 5.10211e-53 2.97685e-53 1.7147e-53 9.75159e-54 5.4759e-54 3.03643e-54 1.66279e-54 8.99314e-55 4.80424e-55 2.53522e-55 1.32167e-55 6.8074e-56 3.46443e-56 1.74224e-56 8.65826e-57 4.25151e-57 2.06087e-57 9.81597e-58 4.4899e-58 1.73678e-58 0 
0 7.20903e-77 2.58285e-76 8.48089e-76 2.7433e-75 8.7954e-75 2.79645e-74 8.81709e-74 2.75668e-73 8.54606e-73 2.62687e-72 8.0053e-72 2.41856e-71 7.24357e-71 2.15048e-70 6.32816e-70 1.84567e-69 5.33501e-69 1.52825e-68 4.33811e-68 1.22019e-67 3.40052e-67 9.38909e-67 2.56822e-66 6.95893e-66 1.86776e-65 4.96523e-65 1.30727e-64 3.40851e-64 8.80051e-64 2.24989e-63 5.69496e-63 1.42713e-62 3.54034e-62 8.69365e-62 2.113e-61 5.08278e-61 1.20996e-60 2.8502e-60 6.64318e-60 1.53192e-59 3.49477e-59 7.88651e-59 1.76035e-58 3.88614e-58 8.48414e-58 1.83158e-57 3.90963e-57 8.25076e-57 1.72132e-56 3.54975e-56 7.23537e-56 1.45751e-55 2.90138e-55 5.70691e-55 1.10907e-54 2.12928e-54 4.03817e-54 7.5643e-54 1.39941e-53 2.55663e-53 4.61209e-53 8.21469e-53 1.44446e-52 2.50727e-52 4.29569e-52 7.26379e-52 1.21213e-51 1.99597e-51 3.24292e-51 5.19827e-51 8.22024e-51 1.28227e-50 1.9729e-50 2.99387e-50 4.48055e-50 6.61259e-50 9.62338e-50 1.38094e-49 1.95386e-49 2.72562e-49 3.74867e-49 5.083e-49 6.79496e-49 8.95527e-49 1.16359e-48 1.49061e-48 1.88274e-48 2.34479e-48 2.87965e-48 3.48775e-48 4.16654e-48 4.91023e-48 5.7096e-48 6.5522e-48 7.42273e-48 8.30371e-48 9.17639e-48 1.00218e-47 1.08221e-47 1.15611e-47 1.22262e-47 1.28081e-47 1.3302e-47 1.37075e-47 1.40282e-47 1.42713e-47 1.44469e-47 1.4567e-47 1.46443e-47 1.46917e-47 1.4721e-47 1.47426e-47 1.47647e-47 1.47936e-47 1.48333e-47 1.48857e-47 1.49514e-47 1.50293e-47 1.51178e-47 1.52146e-47 1.53173e-47 1.54236e-47 1.55317e-47 1.56397e-47 1.57462e-47 1.585e-47 1.595e-47 1.6045e-47 1.61337e-47 1.62145e-47 1.62858e-47 1.63456e-47 1.63916e-47 1.64219e-47 1.64344e-47 1.64275e-47 1.64e-47 1.63513e-47 1.62813e-47 1.61909e-47 1.60814e-47 1.59547e-47 1.5813e-47 1.56587e-47 1.54943e-47 1.5322e-47 1.51439e-47 1.49616e-47 1.47766e-47 1.45899e-47 1.44027e-47 1.42161e-47 1.40316e-47 1.3851e-47 1.36766e-47 1.35112e-47 1.33581e-47 1.32206e-47 1.31022e-47 1.3006e-47 1.29344e-47 1.28891e-47 1.28704e-47 1.28777e-47 1.29088e-47 1.29606e-47 1.30291e-47 1.31096e-47 1.31974e-47 1.32878e-47 1.33768e-47 1.34609e-47 1.35379e-47 1.36063e-47 1.36657e-47 1.37164e-47 1.37589e-47 1.37941e-47 1.38224e-47 1.38437e-47 1.38571e-47 1.38605e-47 1.38509e-47 1.38242e-47 1.37751e-47 1.3698e-47 1.35867e-47 1.34351e-47 1.32374e-47 1.29887e-47 1.26851e-47 1.2324e-47 1.19048e-47 1.14283e-47 1.08973e-47 1.03166e-47 9.69235e-48 9.0326e-48 8.34646e-48 7.64398e-48 6.93574e-48 6.23242e-48 5.54436e-48 4.88118e-48 4.2514e-48 3.66214e-48 3.11893e-48 2.62557e-48 2.18412e-48 1.79499e-48 1.45708e-48 1.16805e-48 9.24523e-49 7.2241e-49 5.5719e-49 4.24154e-49 3.18642e-49 2.36214e-49 1.72784e-49 1.24702e-49 8.87977e-50 6.23842e-50 4.32403e-50 2.95694e-50 1.99499e-50 1.32797e-50 8.72173e-51 5.6519e-51 3.61395e-51 2.28028e-51 1.41982e-51 8.72459e-52 5.29114e-52 3.16721e-52 1.87136e-52 1.0915e-52 6.28501e-53 3.57309e-53 2.00572e-53 1.11178e-53 6.08601e-54 3.29037e-54 1.75708e-54 9.26864e-55 4.83007e-55 2.48681e-55 1.26509e-55 6.35956e-56 3.15919e-56 1.55066e-56 7.51369e-57 3.57742e-57 1.63578e-57 6.32588e-58 0 
0 2.36234e-76 8.46562e-76 2.78042e-75 8.99614e-75 2.88508e-74 9.17551e-74 2.89382e-73 9.05023e-73 2.80652e-72 8.62925e-72 2.63056e-71 7.94999e-71 2.38179e-70 7.07342e-70 2.08219e-69 6.07501e-69 1.75664e-68 5.03382e-68 1.42944e-67 4.02213e-67 1.12135e-66 3.09733e-66 8.4756e-66 2.2975e-65 6.16901e-65 1.64065e-64 4.32143e-64 1.12724e-63 2.91175e-63 7.44736e-63 1.88596e-62 4.72832e-62 1.17353e-61 2.88311e-61 7.01084e-61 1.68728e-60 4.01861e-60 9.47112e-60 2.20864e-59 5.0958e-59 1.16312e-58 2.62617e-58 5.86503e-58 1.29547e-57 2.82981e-57 6.11247e-57 1.30548e-56 2.75659e-56 5.75422e-56 1.18733e-55 2.42149e-55 4.8807e-55 9.72134e-55 1.91326e-54 3.72033e-54 7.14672e-54 1.35615e-53 2.5418e-53 4.70505e-53 8.6007e-53 1.55241e-52 2.76656e-52 4.86736e-52 8.45322e-52 1.44905e-51 2.45155e-51 4.09305e-51 6.74318e-51 1.09611e-50 1.75783e-50 2.78097e-50 4.33984e-50 6.68e-50 1.01408e-49 1.51818e-49 2.24134e-49 3.26283e-49 4.6834e-49 6.62805e-49 9.24804e-49 1.27215e-48 1.72521e-48 2.3065e-48 3.04e-48 3.95009e-48 5.06015e-48 6.39091e-48 7.95848e-48 9.7724e-48 1.18337e-47 1.41334e-47 1.66512e-47 1.93554e-47 2.22031e-47 2.51421e-47 2.81125e-47 3.10504e-47 3.38917e-47 3.65751e-47 3.90471e-47 4.12644e-47 4.31968e-47 4.48287e-47 4.61593e-47 4.72019e-47 4.7982e-47 4.85345e-47 4.89005e-47 4.9124e-47 4.92487e-47 4.93151e-47 4.93582e-47 4.94062e-47 4.94798e-47 4.95926e-47 4.9751e-47 4.9956e-47 5.02043e-47 5.04898e-47 5.08047e-47 5.11408e-47 5.14903e-47 5.18462e-47 5.22027e-47 5.25548e-47 5.28984e-47 5.32296e-47 5.35445e-47 5.38387e-47 5.41072e-47 5.4344e-47 5.45426e-47 5.46959e-47 5.47968e-47 5.48388e-47 5.48163e-47 5.47253e-47 5.45637e-47 5.43317e-47 5.40318e-47 5.36685e-47 5.32479e-47 5.27776e-47 5.22657e-47 5.17202e-47 5.11486e-47 5.05578e-47 4.99531e-47 4.93393e-47 4.872e-47 4.8099e-47 4.748e-47 4.68677e-47 4.62682e-47 4.56892e-47 4.51401e-47 4.46314e-47 4.41747e-47 4.37813e-47 4.34617e-47 4.3224e-47 4.30737e-47 4.30121e-47 4.30367e-47 4.31407e-47 4.33135e-47 4.35418e-47 4.38101e-47 4.41025e-47 4.44034e-47 4.46992e-47 4.4979e-47 4.52348e-47 4.54622e-47 4.56596e-47 4.58281e-47 4.59698e-47 4.60875e-47 4.61828e-47 4.62557e-47 4.63029e-47 4.6318e-47 4.62907e-47 4.62072e-47 4.60506e-47 4.58017e-47 4.54399e-47 4.49448e-47 4.42969e-47 4.34794e-47 4.24789e-47 4.1287e-47 3.99003e-47 3.83216e-47 3.65597e-47 3.46297e-47 3.25525e-47 3.0354e-47 2.80646e-47 2.57176e-47 2.33485e-47 2.09931e-47 1.86861e-47 1.64601e-47 1.43441e-47 1.23623e-47 1.05337e-47 8.87145e-48 7.38294e-48 6.0699e-48 4.92896e-48 3.95245e-48 3.12924e-48 2.44571e-48 1.88672e-48 1.43646e-48 1.07925e-48 8.00122e-49 5.85289e-49 4.22416e-49 3.00783e-49 2.11299e-49 1.46442e-49 1.0013e-49 6.75448e-50 4.49531e-50 2.95175e-50 1.91235e-50 1.22248e-50 7.71123e-51 4.79995e-51 2.94854e-51 1.78757e-51 1.06963e-51 6.3176e-52 3.68341e-52 2.12012e-52 1.20481e-52 6.76024e-53 3.74564e-53 2.0495e-53 1.10756e-53 5.91177e-54 3.11704e-54 1.6236e-54 8.35539e-55 4.24857e-55 2.13473e-55 1.05996e-55 5.20026e-56 2.5186e-56 1.19861e-56 5.47841e-57 2.11797e-57 0 
0 7.62539e-76 2.73322e-75 8.97927e-75 2.90608e-74 9.32251e-74 2.96574e-73 9.3563e-73 2.92701e-72 9.07966e-72 2.79263e-71 8.51589e-71 2.57451e-70 7.71576e-70 2.29222e-69 6.74998e-69 1.9701e-68 5.69881e-68 1.63367e-67 4.64088e-67 1.30636e-66 3.64352e-66 1.00681e-65 2.75621e-65 7.47452e-65 2.00785e-64 5.34226e-64 1.40777e-63 3.67384e-63 9.49422e-63 2.42948e-62 6.15535e-62 1.54398e-61 3.83394e-61 9.42392e-61 2.29279e-60 5.52086e-60 1.3156e-59 3.1023e-59 7.23841e-59 1.67097e-58 3.81612e-58 8.62115e-58 1.92646e-57 4.25762e-57 9.30567e-57 2.01123e-56 4.29804e-56 9.08096e-56 1.89673e-55 3.91607e-55 7.99145e-55 1.61172e-54 3.21216e-54 6.3257e-54 1.23078e-53 2.36577e-53 4.49197e-53 8.42428e-53 1.56033e-52 2.85395e-52 5.15439e-52 9.19107e-52 1.61797e-51 2.81156e-51 4.82229e-51 8.16294e-51 1.3636e-50 2.24767e-50 3.65546e-50 5.86513e-50 9.28327e-50 1.44936e-49 2.23184e-49 3.38948e-49 5.07635e-49 7.49702e-49 1.09173e-48 1.56751e-48 2.21895e-48 3.09678e-48 4.2607e-48 5.77897e-48 7.72701e-48 1.0185e-47 1.32345e-47 1.69534e-47 2.14106e-47 2.66593e-47 3.27304e-47 3.96261e-47 4.73145e-47 5.57262e-47 6.47529e-47 7.42494e-47 8.40384e-47 9.39186e-47 1.03675e-46 1.13092e-46 1.21966e-46 1.30117e-46 1.37403e-46 1.43725e-46 1.49034e-46 1.5333e-46 1.56661e-46 1.59115e-46 1.60811e-46 1.61891e-46 1.62503e-46 1.62794e-46 1.629e-46 1.62939e-46 1.63005e-46 1.63166e-46 1.63467e-46 1.63929e-46 1.64553e-46 1.65329e-46 1.66234e-46 1.67242e-46 1.68324e-46 1.69455e-46 1.7061e-46 1.71769e-46 1.72916e-46 1.74036e-46 1.75117e-46 1.76146e-46 1.77108e-46 1.77986e-46 1.78762e-46 1.79412e-46 1.79915e-46 1.80247e-46 1.80385e-46 1.80313e-46 1.80017e-46 1.79489e-46 1.78731e-46 1.7775e-46 1.76562e-46 1.75186e-46 1.73648e-46 1.71974e-46 1.7019e-46 1.68321e-46 1.66389e-46 1.64413e-46 1.62406e-46 1.60382e-46 1.58351e-46 1.56327e-46 1.54325e-46 1.52364e-46 1.50469e-46 1.48672e-46 1.47007e-46 1.45511e-46 1.44223e-46 1.43177e-46 1.42399e-46 1.41907e-46 1.41707e-46 1.41789e-46 1.42132e-46 1.427e-46 1.43451e-46 1.44332e-46 1.45291e-46 1.46278e-46 1.47249e-46 1.48165e-46 1.49003e-46 1.49748e-46 1.50395e-46 1.50947e-46 1.51413e-46 1.51801e-46 1.52118e-46 1.52363e-46 1.52528e-46 1.5259e-46 1.52517e-46 1.52263e-46 1.51773e-46 1.50984e-46 1.49828e-46 1.48237e-46 1.46147e-46 1.43502e-46 1.40257e-46 1.36381e-46 1.31863e-46 1.26711e-46 1.20951e-46 1.14631e-46 1.07819e-46 1.00598e-46 9.3068e-47 8.53384e-47 7.75255e-47 6.97476e-47 6.21207e-47 5.47529e-47 4.77413e-47 4.11676e-47 3.50961e-47 2.9572e-47 2.46211e-47 2.02505e-47 1.64501e-47 1.31953e-47 1.045e-47 8.16932e-48 6.30338e-48 4.79985e-48 3.60667e-48 2.67408e-48 1.95616e-48 1.4118e-48 1.00524e-48 7.06125e-49 4.89334e-49 3.34535e-49 2.25629e-49 1.50133e-49 9.85593e-50 6.38374e-50 4.0797e-50 2.57264e-50 1.60085e-50 9.83043e-51 5.9576e-51 3.56351e-51 2.1039e-51 1.22615e-51 7.05459e-52 4.00721e-52 2.24746e-52 1.24468e-52 6.80737e-53 3.67699e-53 1.96172e-53 1.03384e-53 5.38244e-54 2.76856e-54 1.40707e-54 7.06646e-55 3.50696e-55 1.7197e-55 8.32479e-56 3.95992e-56 1.80915e-56 6.99197e-57 0 
0 2.43957e-75 8.74632e-75 2.87416e-74 9.30468e-74 2.98575e-73 9.50131e-73 2.99839e-72 9.38309e-72 2.91159e-71 8.95812e-71 2.73262e-70 8.26405e-70 2.47759e-69 7.36316e-69 2.16905e-68 6.33311e-68 1.83265e-67 5.25569e-67 1.49361e-66 4.20607e-66 1.17359e-65 3.24433e-65 8.8854e-65 2.41068e-64 6.4786e-64 1.72454e-63 4.54654e-63 1.18707e-62 3.06918e-62 7.85759e-62 1.99179e-61 4.99864e-61 1.24188e-60 3.05416e-60 7.43453e-60 1.79114e-59 4.27057e-59 1.00759e-58 2.35227e-58 5.43323e-58 1.24154e-57 2.80644e-57 6.27489e-57 1.38762e-56 3.03467e-56 6.5628e-56 1.40334e-55 2.96681e-55 6.20059e-55 1.281e-54 2.61574e-54 5.27875e-54 1.05272e-53 2.07443e-53 4.03874e-53 7.76802e-53 1.47587e-52 2.76961e-52 5.13303e-52 9.39448e-52 1.69774e-51 3.02918e-51 5.33568e-51 9.27735e-51 1.59215e-50 2.69666e-50 4.50721e-50 7.43344e-50 1.20957e-49 1.94172e-49 3.07485e-49 4.80288e-49 7.39921e-49 1.12419e-48 1.68434e-48 2.48844e-48 3.62496e-48 5.20631e-48 7.37201e-48 1.02908e-47 1.41615e-47 1.92109e-47 2.56898e-47 3.38645e-47 4.40052e-47 5.63699e-47 7.11856e-47 8.86265e-47 1.08792e-46 1.31684e-46 1.57192e-46 1.85078e-46 2.14977e-46 2.46399e-46 2.78749e-46 3.11353e-46 3.43494e-46 3.74453e-46 4.03554e-46 4.30206e-46 4.53939e-46 4.74436e-46 4.9154e-46 5.05266e-46 5.15782e-46 5.23392e-46 5.28504e-46 5.31591e-46 5.33155e-46 5.33688e-46 5.33644e-46 5.33414e-46 5.33309e-46 5.33556e-46 5.34296e-46 5.35597e-46 5.37463e-46 5.39851e-46 5.42686e-46 5.45878e-46 5.4933e-46 5.52952e-46 5.56664e-46 5.604e-46 5.64102e-46 5.67723e-46 5.71222e-46 5.74554e-46 5.77672e-46 5.80521e-46 5.83037e-46 5.85151e-46 5.86786e-46 5.87866e-46 5.88321e-46 5.88091e-46 5.87133e-46 5.85425e-46 5.82968e-46 5.79789e-46 5.75936e-46 5.71476e-46 5.66488e-46 5.6106e-46 5.55276e-46 5.49219e-46 5.42958e-46 5.36551e-46 5.30048e-46 5.23488e-46 5.16907e-46 5.10346e-46 5.03854e-46 4.97494e-46 4.91348e-46 4.85516e-46 4.80111e-46 4.75256e-46 4.71075e-46 4.67677e-46 4.65154e-46 4.6356e-46 4.62914e-46 4.63187e-46 4.64307e-46 4.66161e-46 4.68605e-46 4.71474e-46 4.74597e-46 4.77808e-46 4.80961e-46 4.8394e-46 4.86662e-46 4.8908e-46 4.9118e-46 4.92975e-46 4.94492e-46 4.95762e-46 4.96807e-46 4.97628e-46 4.98196e-46 4.98442e-46 4.9826e-46 4.97504e-46 4.95992e-46 4.93521e-46 4.89868e-46 4.8481e-46 4.78137e-46 4.69661e-46 4.59232e-46 4.46749e-46 4.32166e-46 4.15502e-46 3.96839e-46 3.76329e-46 3.54183e-46 3.30674e-46 3.06121e-46 2.8088e-46 2.55331e-46 2.29863e-46 2.04857e-46 1.80671e-46 1.57628e-46 1.36e-46 1.16004e-46 9.77937e-47 8.14587e-47 6.70265e-47 5.44682e-47 4.37059e-47 3.46227e-47 2.70732e-47 2.08937e-47 1.59125e-47 1.19583e-47 8.86687e-48 6.48657e-48 4.68149e-48 3.3332e-48 2.3412e-48 1.62223e-48 1.10888e-48 7.47758e-49 4.97452e-49 3.26489e-49 2.11413e-49 1.3507e-49 8.51476e-50 5.29663e-50 3.25137e-50 1.96971e-50 1.17771e-50 6.95034e-51 4.04894e-51 2.32851e-51 1.32207e-51 7.41146e-52 4.10266e-52 2.24274e-52 1.21082e-52 6.45672e-53 3.40104e-53 1.76978e-53 9.09856e-54 4.62183e-54 2.31995e-54 1.15076e-54 5.64006e-55 2.72888e-55 1.29743e-55 5.92488e-56 2.28907e-56 0 
0 7.73958e-75 2.77544e-74 9.123e-74 2.95431e-73 9.48284e-73 3.01857e-72 9.52892e-72 2.98291e-71 9.25909e-71 2.84971e-70 8.69588e-70 2.63075e-69 7.88993e-69 2.34567e-68 6.9125e-68 2.01906e-67 5.84497e-67 1.6769e-66 4.76752e-66 1.34311e-65 3.74917e-65 1.03689e-64 2.84104e-64 7.71143e-64 2.07337e-63 5.52167e-63 1.45642e-62 3.80444e-62 9.8413e-62 2.5208e-61 6.39314e-61 1.60527e-60 3.99029e-60 9.81859e-60 2.39137e-59 5.76453e-59 1.37519e-58 3.24644e-58 7.58335e-58 1.75261e-57 4.00724e-57 9.0636e-57 2.02774e-56 4.48687e-56 9.81868e-56 2.12472e-55 4.54619e-55 9.61725e-55 2.01127e-54 4.15782e-54 8.49557e-54 1.71558e-53 3.42353e-53 6.75062e-53 1.31515e-52 2.53117e-52 4.8122e-52 9.03639e-52 1.67584e-51 3.06909e-51 5.5499e-51 9.90861e-51 1.74642e-50 3.03844e-50 5.21762e-50 8.84245e-50 1.47879e-49 2.44025e-49 3.97295e-49 6.38118e-49 1.01102e-48 1.57998e-48 2.43522e-48 3.70154e-48 5.54822e-48 8.20009e-48 1.19495e-47 1.71678e-47 2.43162e-47 3.39523e-47 4.67325e-47 6.34062e-47 8.48007e-47 1.11794e-46 1.45276e-46 1.86094e-46 2.3499e-46 2.92531e-46 3.5903e-46 4.34482e-46 5.185e-46 6.10282e-46 7.08595e-46 8.11804e-46 9.17924e-46 1.02471e-45 1.1298e-45 1.2308e-45 1.32549e-45 1.41193e-45 1.4886e-45 1.55448e-45 1.60908e-45 1.65249e-45 1.6853e-45 1.70856e-45 1.72363e-45 1.73212e-45 1.73568e-45 1.73597e-45 1.73449e-45 1.73251e-45 1.73108e-45 1.73091e-45 1.73248e-45 1.73599e-45 1.74144e-45 1.74868e-45 1.75746e-45 1.76746e-45 1.77837e-45 1.78987e-45 1.8017e-45 1.81363e-45 1.82548e-45 1.83709e-45 1.84832e-45 1.85902e-45 1.86904e-45 1.87821e-45 1.88631e-45 1.89312e-45 1.89839e-45 1.90188e-45 1.90336e-45 1.90264e-45 1.89957e-45 1.89409e-45 1.88619e-45 1.87597e-45 1.86358e-45 1.84923e-45 1.83319e-45 1.81573e-45 1.79714e-45 1.77766e-45 1.75753e-45 1.73694e-45 1.71604e-45 1.69495e-45 1.6738e-45 1.6527e-45 1.63182e-45 1.61136e-45 1.59159e-45 1.57282e-45 1.55542e-45 1.53979e-45 1.52632e-45 1.51538e-45 1.50726e-45 1.50214e-45 1.50007e-45 1.50097e-45 1.5046e-45 1.5106e-45 1.5185e-45 1.52776e-45 1.53784e-45 1.5482e-45 1.55837e-45 1.56798e-45 1.57674e-45 1.58453e-45 1.5913e-45 1.59708e-45 1.60198e-45 1.60611e-45 1.60953e-45 1.61226e-45 1.6142e-45 1.61514e-45 1.61475e-45 1.61254e-45 1.60795e-45 1.6003e-45 1.58888e-45 1.57296e-45 1.55186e-45 1.52495e-45 1.49175e-45 1.4519e-45 1.40524e-45 1.35182e-45 1.29187e-45 1.22586e-45 1.15447e-45 1.07856e-45 9.99148e-46 9.17389e-46 8.34511e-46 7.51778e-46 6.70435e-46 5.9166e-46 5.16514e-46 4.45905e-46 3.80553e-46 3.20979e-46 2.67491e-46 2.20194e-46 1.79008e-46 1.43687e-46 1.13859e-46 8.90548e-47 6.87422e-47 5.23623e-47 3.9355e-47 2.91833e-47 2.13498e-47 1.54085e-47 1.09702e-47 7.70473e-48 5.33801e-48 3.64825e-48 2.45968e-48 1.63597e-48 1.07346e-48 6.94909e-49 4.43837e-49 2.79703e-49 1.73929e-49 1.06728e-49 6.46316e-50 3.86282e-50 2.27871e-50 1.32689e-50 7.62736e-51 4.3286e-51 2.42544e-51 1.34197e-51 7.33229e-52 3.95662e-52 2.10879e-52 1.11022e-52 5.7742e-53 2.96701e-53 1.50637e-53 7.55731e-54 3.74667e-54 1.83533e-54 8.87541e-55 4.21763e-55 1.92515e-55 7.43527e-56 0 
0 2.43484e-74 8.73353e-74 2.87157e-73 9.30182e-73 2.98665e-72 9.51008e-72 3.00307e-71 9.40386e-71 2.91998e-70 8.99007e-70 2.74428e-69 8.30523e-69 2.49176e-68 7.41077e-68 2.18473e-67 6.38386e-67 1.8488e-66 5.30631e-66 1.50925e-65 4.25369e-65 1.1879e-64 3.28678e-64 9.0097e-64 2.44663e-63 6.58135e-63 1.75355e-62 4.62749e-62 1.20939e-61 3.13002e-61 8.02153e-61 2.03545e-60 5.11359e-60 1.2718e-59 3.13114e-59 7.63034e-59 1.84038e-58 4.39295e-58 1.03766e-57 2.4253e-57 5.60856e-57 1.28314e-56 2.90401e-56 6.50101e-56 1.43941e-55 3.15189e-55 6.82492e-55 1.46125e-54 3.09323e-54 6.4732e-54 1.33906e-53 2.7379e-53 5.53256e-53 1.1048e-52 2.17994e-52 4.24979e-52 8.18481e-52 1.55712e-51 2.92595e-51 5.42992e-51 9.95087e-51 1.80062e-50 3.21688e-50 5.67352e-50 9.87713e-50 1.69717e-49 2.87801e-49 4.81603e-49 7.95191e-49 1.29538e-48 2.08174e-48 3.30002e-48 5.15976e-48 7.95659e-48 1.20996e-47 1.81439e-47 2.68269e-47 3.91076e-47 5.6205e-47 7.96317e-47 1.11218e-46 1.53116e-46 2.07783e-46 2.77931e-46 3.66434e-46 4.76197e-46 6.09987e-46 7.70215e-46 9.58702e-46 1.17644e-45 1.42335e-45 1.69811e-45 1.99801e-45 2.31894e-45 2.65547e-45 3.00102e-45 3.3482e-45 3.68917e-45 4.01615e-45 4.32185e-45 4.59998e-45 4.84561e-45 5.05547e-45 5.22813e-45 5.36398e-45 5.46511e-45 5.53504e-45 5.57838e-45 5.60045e-45 5.60677e-45 5.60278e-45 5.59341e-45 5.58288e-45 5.57452e-45 5.57071e-45 5.57293e-45 5.58182e-45 5.59734e-45 5.61895e-45 5.64578e-45 5.67679e-45 5.71089e-45 5.74707e-45 5.78444e-45 5.82224e-45 5.85984e-45 5.89675e-45 5.93248e-45 5.96657e-45 5.99853e-45 6.02777e-45 6.05364e-45 6.07541e-45 6.09228e-45 6.10347e-45 6.10825e-45 6.10599e-45 6.09624e-45 6.07877e-45 6.05361e-45 6.02102e-45 5.98149e-45 5.93573e-45 5.88456e-45 5.82887e-45 5.76956e-45 5.70745e-45 5.64327e-45 5.57762e-45 5.51098e-45 5.44375e-45 5.37631e-45 5.30903e-45 5.24244e-45 5.17717e-45 5.11406e-45 5.05413e-45 4.99857e-45 4.94865e-45 4.90565e-45 4.87071e-45 4.84478e-45 4.82845e-45 4.82189e-45 4.82482e-45 4.8365e-45 4.85575e-45 4.88107e-45 4.91077e-45 4.94305e-45 4.9762e-45 5.00873e-45 5.03943e-45 5.06745e-45 5.09232e-45 5.11394e-45 5.13245e-45 5.14816e-45 5.16145e-45 5.17257e-45 5.18155e-45 5.18814e-45 5.19167e-45 5.19105e-45 5.18479e-45 5.17103e-45 5.14766e-45 5.11235e-45 5.06278e-45 4.99671e-45 4.91212e-45 4.80739e-45 4.68134e-45 4.53339e-45 4.36358e-45 4.17266e-45 3.96205e-45 3.73383e-45 3.49074e-45 3.23602e-45 2.97333e-45 2.70663e-45 2.44e-45 2.17748e-45 1.92291e-45 1.67975e-45 1.451e-45 1.23905e-45 1.04564e-45 8.71819e-46 7.17987e-46 5.83923e-46 4.68874e-46 3.71656e-46 2.90764e-46 2.24492e-46 1.71028e-46 1.28558e-46 9.53383e-47 6.97495e-47 5.03387e-47 3.58375e-47 2.51675e-47 1.74344e-47 1.19136e-47 8.03068e-48 5.34009e-48 3.50305e-48 2.26707e-48 1.44752e-48 9.11909e-49 5.66853e-49 3.47704e-49 2.10476e-49 1.25741e-49 7.41434e-50 4.31539e-50 2.47947e-50 1.40644e-50 7.87684e-51 4.35598e-51 2.37882e-51 1.28298e-51 6.83445e-52 3.59624e-52 1.86938e-52 9.60047e-53 4.87159e-53 2.4427e-53 1.21035e-53 5.92578e-54 2.86408e-54 1.36031e-54 6.20626e-55 2.39612e-55 0 
0 7.59541e-74 2.72507e-73 8.9626e-73 2.90412e-72 9.32756e-72 2.97104e-71 9.38498e-71 2.93982e-70 9.13155e-70 2.81242e-69 8.58822e-69 2.60008e-68 7.80377e-68 2.32183e-67 6.84757e-67 2.00169e-66 5.79939e-66 1.6652e-65 4.73828e-65 1.33603e-64 3.7327e-64 1.03327e-63 2.83371e-63 7.69873e-63 2.07193e-62 5.52321e-62 1.45827e-61 3.81311e-61 9.87387e-61 2.53178e-60 6.42783e-60 1.61572e-59 4.02069e-59 9.90446e-59 2.41503e-58 5.82826e-58 1.39202e-57 3.29007e-57 7.6945e-57 1.78047e-56 4.07596e-56 9.23056e-56 2.06771e-55 4.58116e-55 1.0038e-54 2.17501e-54 4.65992e-54 9.87095e-54 2.06709e-53 4.27897e-53 8.75496e-53 1.77036e-52 3.5377e-52 6.9853e-52 1.36273e-51 2.62636e-51 5.00002e-51 9.40194e-51 1.74601e-50 3.20193e-50 5.79791e-50 1.03652e-49 1.82931e-49 3.18678e-49 5.47936e-49 9.29768e-49 1.55684e-48 2.57212e-48 4.19251e-48 6.74144e-48 1.06926e-47 1.67274e-47 2.58074e-47 3.92644e-47 5.89053e-47 8.71319e-47 1.27068e-46 1.82685e-46 2.58911e-46 3.61707e-46 4.98087e-46 6.76049e-46 9.04415e-46 1.19253e-45 1.54981e-45 1.98523e-45 2.50654e-45 3.11958e-45 3.82742e-45 4.62964e-45 5.5217e-45 6.49457e-45 7.53461e-45 8.6239e-45 9.74081e-45 1.08611e-44 1.19591e-44 1.30096e-44 1.39888e-44 1.48764e-44 1.56566e-44 1.63193e-44 1.686e-44 1.72806e-44 1.75881e-44 1.77946e-44 1.79154e-44 1.7968e-44 1.79707e-44 1.79412e-44 1.78957e-44 1.7848e-44 1.78087e-44 1.77855e-44 1.7783e-44 1.78033e-44 1.7846e-44 1.79094e-44 1.79903e-44 1.80854e-44 1.8191e-44 1.83037e-44 1.84207e-44 1.85394e-44 1.86577e-44 1.8774e-44 1.88868e-44 1.89945e-44 1.90955e-44 1.91881e-44 1.927e-44 1.9339e-44 1.93926e-44 1.94282e-44 1.94435e-44 1.94365e-44 1.94057e-44 1.93506e-44 1.92711e-44 1.9168e-44 1.90429e-44 1.88982e-44 1.87363e-44 1.85601e-44 1.83725e-44 1.81761e-44 1.79731e-44 1.77655e-44 1.75548e-44 1.73423e-44 1.7129e-44 1.69162e-44 1.67056e-44 1.6499e-44 1.62993e-44 1.61095e-44 1.59336e-44 1.57755e-44 1.56392e-44 1.55286e-44 1.54465e-44 1.53948e-44 1.53742e-44 1.53837e-44 1.54209e-44 1.54822e-44 1.55628e-44 1.56571e-44 1.57596e-44 1.58649e-44 1.59681e-44 1.60654e-44 1.61542e-44 1.62331e-44 1.63016e-44 1.63603e-44 1.64103e-44 1.64527e-44 1.64886e-44 1.6518e-44 1.65402e-44 1.6553e-44 1.65532e-44 1.6536e-44 1.64956e-44 1.64251e-44 1.63172e-44 1.61645e-44 1.59597e-44 1.56964e-44 1.53691e-44 1.49741e-44 1.45092e-44 1.39743e-44 1.33716e-44 1.27053e-44 1.19819e-44 1.121e-44 1.03996e-44 9.5625e-45 8.71121e-45 7.85879e-45 7.01826e-45 6.20201e-45 5.42133e-45 4.68599e-45 4.00386e-45 3.38072e-45 2.82016e-45 2.32362e-45 1.89053e-45 1.51859e-45 1.2041e-45 9.42276e-46 7.27664e-46 5.54461e-46 4.16829e-46 3.09141e-46 2.26175e-46 1.6323e-46 1.16201e-46 8.15967e-47 5.65173e-47 3.86138e-47 2.60234e-47 1.73005e-47 1.13459e-47 7.34056e-48 4.68542e-48 2.95068e-48 1.83349e-48 1.12421e-48 6.80231e-49 4.06203e-49 2.3941e-49 1.39279e-49 7.99859e-50 4.53485e-50 2.53847e-50 1.40307e-50 7.65823e-51 4.12815e-51 2.19787e-51 1.15588e-51 6.00511e-52 3.08229e-52 1.56318e-52 7.83368e-53 3.8794e-53 1.89826e-53 9.1697e-54 4.35287e-54 1.98498e-54 7.66085e-55 0 
0 2.34927e-73 8.43079e-73 2.77367e-72 8.99026e-72 2.88845e-71 9.20341e-71 2.90817e-70 9.11291e-70 2.83162e-69 8.72425e-69 2.66509e-68 8.07159e-68 2.42351e-67 7.21344e-67 2.12826e-66 6.22391e-66 1.80398e-65 5.18208e-65 1.47519e-64 4.1614e-64 1.16317e-63 3.22135e-63 8.83866e-63 2.40249e-62 6.46894e-62 1.72532e-61 4.55762e-61 1.19236e-60 3.08921e-60 7.92543e-60 2.01326e-59 5.06347e-59 1.26075e-58 3.10751e-58 7.58158e-58 1.83078e-57 4.3753e-57 1.03475e-56 2.4215e-56 5.6068e-56 1.28437e-55 2.91052e-55 6.52409e-55 1.44642e-54 3.17146e-54 6.87654e-54 1.4743e-53 3.12514e-53 6.54899e-53 1.35663e-52 2.77769e-52 5.62085e-52 1.12401e-51 2.221e-51 4.33598e-51 8.36265e-51 1.59321e-50 2.998e-50 5.57149e-50 1.02246e-49 1.85274e-49 3.31456e-49 5.85379e-49 1.02047e-48 1.75579e-48 2.9813e-48 4.99523e-48 8.25807e-48 1.34689e-47 2.16705e-47 3.43914e-47 5.38313e-47 8.30963e-47 1.26489e-46 1.89851e-46 2.80949e-46 4.09885e-46 5.89507e-46 8.35758e-46 1.16792e-45 1.60868e-45 2.18388e-45 2.92203e-45 3.85328e-45 5.008e-45 6.41496e-45 8.09902e-45 1.00787e-44 1.23633e-44 1.49511e-44 1.78265e-44 2.09597e-44 2.43057e-44 2.78057e-44 3.13892e-44 3.49771e-44 3.84864e-44 4.18349e-44 4.49465e-44 4.77561e-44 5.02136e-44 5.2287e-44 5.39637e-44 5.52507e-44 5.61729e-44 5.677e-44 5.70929e-44 5.71992e-44 5.71487e-44 5.69992e-44 5.68028e-44 5.6604e-44 5.64371e-44 5.63267e-44 5.62871e-44 5.63243e-44 5.64371e-44 5.66187e-44 5.68595e-44 5.71476e-44 5.74713e-44 5.78194e-44 5.81822e-44 5.85515e-44 5.89207e-44 5.92841e-44 5.9637e-44 5.99744e-44 6.02912e-44 6.05816e-44 6.0839e-44 6.1056e-44 6.12245e-44 6.13367e-44 6.13853e-44 6.13638e-44 6.12679e-44 6.10952e-44 6.08458e-44 6.05225e-44 6.01303e-44 5.9676e-44 5.91681e-44 5.86154e-44 5.80269e-44 5.74108e-44 5.67743e-44 5.61234e-44 5.54628e-44 5.47963e-44 5.41275e-44 5.34602e-44 5.27993e-44 5.21512e-44 5.15242e-44 5.09284e-44 5.03758e-44 4.98791e-44 4.94511e-44 4.91035e-44 4.88457e-44 4.86837e-44 4.86194e-44 4.86499e-44 4.87678e-44 4.89612e-44 4.92153e-44 4.95127e-44 4.98357e-44 5.0167e-44 5.04918e-44 5.07978e-44 5.10769e-44 5.13246e-44 5.15399e-44 5.17247e-44 5.18825e-44 5.20172e-44 5.21319e-44 5.22274e-44 5.23014e-44 5.23476e-44 5.23554e-44 5.23101e-44 5.21934e-44 5.19839e-44 5.16583e-44 5.1193e-44 5.0565e-44 4.97534e-44 4.87408e-44 4.75143e-44 4.60668e-44 4.43971e-44 4.25112e-44 4.04217e-44 3.81486e-44 3.57178e-44 3.31613e-44 3.05156e-44 2.78203e-44 2.51171e-44 2.24473e-44 1.98508e-44 1.73639e-44 1.50185e-44 1.28401e-44 1.08479e-44 9.05394e-45 7.46335e-45 6.07486e-45 4.88154e-45 3.87184e-45 3.03076e-45 2.341e-45 1.78408e-45 1.34139e-45 9.94917e-46 7.27924e-46 5.25333e-46 3.73956e-46 2.62566e-46 1.81839e-46 1.24214e-46 8.3695e-47 5.5627e-47 3.64709e-47 2.35886e-47 1.50513e-47 9.47525e-48 5.88543e-48 3.60718e-48 2.18168e-48 1.30222e-48 7.67145e-49 4.46079e-49 2.56049e-49 1.45094e-49 8.11767e-50 4.48444e-50 2.44636e-50 1.31798e-50 7.01314e-51 3.68617e-51 1.91399e-51 9.81847e-52 4.97657e-52 2.49251e-52 1.23363e-52 6.03289e-53 2.91258e-53 1.38184e-53 6.29828e-54 2.42985e-54 0 