# vtk DataFile Version 3.0
Gray-Scott Simulation Output
ASCII
DATASET STRUCTURED_POINTS
DIMENSIONS 256 256 1
SPACING 1.0 1.0 1.0
ORIGIN 0 0 0
POINT_DATA 65536
SCALARS u double
LOOKUP_TABLE default
0 0 0 0 0 0 0 0 0 0 0 0 0 0 0 0 0 0 0 0 0 0 0 0 0 0 0 0 0 0 0 0 0 0 0 0 0 0 0 0 0 0 0 0 0 0 0 0 0 0 0 0 0 0 0 0 0 0 0 0 0 0 0 0 0 0 0 0 0 0 0 0 0 0 0 0 0 0 0 0 0 0 0 0 0 0 0 0 0 0 0 0 0 0 0 0 0 0 0 0 0 0 0 0 0 0 0 0 0 0 0 0 0 0 0 0 0 0 0 0 0 0 0 0 0 0 0 0 0 0 0 0 0 0 0 0 0 0 0 0 0 0 0 0 0 0 0 0 0 0 0 0 0 0 0 0 0 0 0 0 0 0 0 0 0 0 0 0 0 0 0 0 0 0 0 0 0 0 0 0 0 0 0 0 0 0 0 0 0 0 0 0 0 0 0 0 0 0 0 0 0 0 0 0 0 0 0 0 0 0 0 0 0 0 0 0 0 0 0 0 0 0 0 0 0 0 0 0 0 0 0 0 0 0 0 0 0 0 0 0 0 0 0 0 0 0 0 0 0 0 0 0 0 0 0 0 
0 5.74985e-94 2.92259e-93 1.41633e-92 6.7891e-92 3.22343e-91 1.51591e-90 7.06066e-90 3.25684e-89 1.48762e-88 6.72813e-88 3.01277e-87 1.33558e-86 5.86098e-86 2.5458e-85 1.09444e-84 4.65625e-84 1.96026e-83 8.16552e-83 3.36514e-82 1.37192e-81 5.53247e-81 2.20662e-80 8.70376e-80 3.3948e-79 1.30919e-78 4.99139e-78 1.88115e-77 7.00748e-77 2.57979e-76 9.38509e-76 3.37345e-75 1.19795e-74 4.20221e-74 1.45591e-73 4.98148e-73 1.68301e-72 5.61393e-72 1.84858e-71 6.00813e-71 1.92713e-70 6.09948e-70 1.90467e-69 5.8672e-69 1.78262e-68 5.34118e-68 1.57797e-67 4.59599e-67 1.31949e-66 3.73343e-66 1.04092e-65 2.85928e-65 7.73671e-65 2.06177e-64 5.41043e-64 1.39783e-63 3.55495e-63 8.8979e-63 2.19148e-62 5.31008e-62 1.26561e-61 2.96655e-61 6.8371e-61 1.5491e-60 3.44975e-60 7.54946e-60 1.62322e-59 3.42839e-59 7.11161e-59 1.44853e-58 2.89658e-58 5.68536e-58 1.09513e-57 2.06977e-57 3.83754e-57 6.97878e-57 1.24459e-56 2.17631e-56 3.7307e-56 6.26862e-56 1.03229e-55 1.66579e-55 2.63375e-55 4.07962e-55 6.19031e-55 9.20069e-55 1.33942e-54 1.90981e-54 2.66704e-54 3.64791e-54 4.88713e-54 6.41351e-54 8.24561e-54 1.03874e-53 1.28249e-53 1.55231e-53 1.84267e-53 2.14611e-53 2.45374e-53 2.75594e-53 3.04312e-53 3.30665e-53 3.53964e-53 3.73758e-53 3.89872e-53 4.02407e-53 4.11717e-53 4.18349e-53 4.22974e-53 4.26304e-53 4.29019e-53 4.31694e-53 4.34767e-53 4.38508e-53 4.43026e-53 4.48287e-53 4.54151e-53 4.60409e-53 4.66831e-53 4.73195e-53 4.79322e-53 4.85092e-53 4.9045e-53 4.954e-53 4.99999e-53 5.04339e-53 5.08521e-53 5.12643e-53 5.16775e-53 5.20944e-53 5.25123e-53 5.29224e-53 5.331e-53 5.36555e-53 5.39357e-53 5.41264e-53 5.42049e-53 5.41528e-53 5.39586e-53 5.36192e-53 5.31409e-53 5.25387e-53 5.18352e-53 5.10576e-53 5.02348e-53 4.93941e-53 4.85579e-53 4.77415e-53 4.69517e-53 4.61868e-53 4.5438e-53 4.46918e-53 4.39333e-53 4.315e-53 4.23356e-53 4.14926e-53 4.06344e-53 3.97852e-53 3.89785e-53 3.82537e-53 3.76517e-53 3.72095e-53 3.69554e-53 3.69047e-53 3.70568e-53 3.73948e-53 3.78865e-53 3.84881e-53 3.9149e-53 3.98172e-53 4.04451e-53 4.09945e-53 4.14398e-53 4.17701e-53 4.19891e-53 4.21128e-53 4.21663e-53 4.21795e-53 4.21826e-53 4.22011e-53 4.22524e-53 4.23429e-53 4.24662e-53 4.26033e-53 4.27232e-53 4.27859e-53 4.2745e-53 4.2552e-53 4.21599e-53 4.15281e-53 4.0625e-53 3.94311e-53 3.79409e-53 3.6163e-53 3.41203e-53 3.18478e-53 2.93908e-53 2.68022e-53 2.41392e-53 2.14605e-53 1.88231e-53 1.62796e-53 1.38761e-53 1.16501e-53 9.62952e-54 7.83196e-54 6.26494e-54 4.92656e-54 3.80687e-54 2.88948e-54 2.15353e-54 1.57553e-54 1.13119e-54 7.96852e-55 5.50655e-55 3.73231e-55 2.481e-55 1.61732e-55 1.03388e-55 6.48094e-56 3.98391e-56 2.4016e-56 1.41983e-56 8.23283e-57 4.68251e-57 2.61259e-57 1.43014e-57 7.68174e-58 4.04923e-58 2.09499e-58 1.06404e-58 5.30597e-59 2.59824e-59 1.24961e-59 5.9037e-60 2.74035e-60 1.24996e-60 5.60369e-61 2.46954e-61 1.07004e-61 4.5594e-62 1.9108e-62 7.87769e-63 3.1955e-63 1.27559e-63 5.01177e-64 1.93846e-64 7.38215e-65 2.76849e-65 1.02261e-65 3.72092e-66 1.33379e-66 4.70606e-67 1.62005e-67 4.99632e-68 0 
0 2.91961e-93 1.48399e-92 7.19154e-92 3.44721e-91 1.63671e-90 7.69712e-90 3.58509e-89 1.65369e-88 7.55359e-88 3.41634e-87 1.52982e-86 6.78195e-86 2.97621e-85 1.29279e-84 5.55792e-84 2.36467e-83 9.95557e-83 4.1472e-82 1.70921e-81 6.96858e-81 2.81033e-80 1.12096e-79 4.42181e-79 1.7248e-78 6.65208e-78 2.53636e-77 9.55985e-77 3.56145e-76 1.31126e-75 4.77075e-75 1.71501e-74 6.09086e-74 2.13681e-73 7.40417e-73 2.53368e-72 8.56126e-72 2.85611e-71 9.40602e-71 3.05753e-70 9.80862e-70 3.10497e-69 9.69737e-69 2.98769e-68 9.07899e-68 2.72078e-67 8.03961e-67 2.34205e-66 6.7252e-66 1.90324e-65 5.30748e-65 1.4582e-64 3.94648e-64 1.05193e-63 2.76105e-63 7.13502e-63 1.81498e-62 4.54387e-62 1.11938e-61 2.71297e-61 6.46768e-61 1.51637e-60 3.49568e-60 7.9222e-60 1.76467e-59 3.86277e-59 8.30746e-59 1.75505e-58 3.64144e-58 7.4189e-58 1.48389e-57 2.91326e-57 5.61291e-57 1.06108e-56 1.96778e-56 3.5793e-56 6.38467e-56 1.11666e-55 1.9146e-55 3.21767e-55 5.29966e-55 8.55342e-55 1.35258e-54 2.09542e-54 3.17995e-54 4.72693e-54 6.88211e-54 9.81367e-54 1.37058e-53 1.87475e-53 2.51173e-53 3.29629e-53 4.23797e-53 5.33879e-53 6.59143e-53 7.97797e-53 9.46981e-53 1.10286e-52 1.26086e-52 1.41604e-52 1.56346e-52 1.69869e-52 1.81819e-52 1.91967e-52 2.00222e-52 2.06637e-52 2.11394e-52 2.14776e-52 2.17128e-52 2.18816e-52 2.20188e-52 2.21541e-52 2.23098e-52 2.24999e-52 2.27299e-52 2.29981e-52 2.32973e-52 2.36168e-52 2.39447e-52 2.42698e-52 2.45828e-52 2.48776e-52 2.51513e-52 2.54042e-52 2.56391e-52 2.58608e-52 2.60744e-52 2.6285e-52 2.64961e-52 2.6709e-52 2.69225e-52 2.7132e-52 2.73301e-52 2.75066e-52 2.76498e-52 2.77472e-52 2.77874e-52 2.77608e-52 2.76616e-52 2.74882e-52 2.72438e-52 2.69361e-52 2.65767e-52 2.61794e-52 2.57591e-52 2.53297e-52 2.49026e-52 2.44857e-52 2.40824e-52 2.36918e-52 2.33095e-52 2.29285e-52 2.25411e-52 2.21409e-52 2.17247e-52 2.12937e-52 2.08549e-52 2.04206e-52 2.0008e-52 1.96372e-52 1.93291e-52 1.91028e-52 1.89728e-52 1.89469e-52 1.90247e-52 1.91977e-52 1.94494e-52 1.97574e-52 2.00957e-52 2.04377e-52 2.0759e-52 2.10401e-52 2.12679e-52 2.14368e-52 2.15487e-52 2.16118e-52 2.1639e-52 2.16456e-52 2.1647e-52 2.16564e-52 2.16826e-52 2.17289e-52 2.17921e-52 2.18624e-52 2.1924e-52 2.19564e-52 2.19359e-52 2.18376e-52 2.16374e-52 2.13146e-52 2.08528e-52 2.0242e-52 1.94794e-52 1.85693e-52 1.75232e-52 1.6359e-52 1.50999e-52 1.37728e-52 1.24071e-52 1.10328e-52 9.67911e-53 8.37312e-53 7.13852e-53 5.99467e-53 4.95598e-53 4.03162e-53 3.22554e-53 2.53687e-53 1.96057e-53 1.48829e-53 1.10933e-53 8.11649e-54 5.82774e-54 4.10543e-54 2.83704e-54 1.92292e-54 1.2782e-54 8.33198e-55 5.32589e-55 3.33831e-55 2.05191e-55 1.2368e-55 7.3111e-56 4.23874e-56 2.41047e-56 1.3447e-56 7.35975e-57 3.95246e-57 2.08306e-57 1.07753e-57 5.47166e-58 2.72798e-58 1.33557e-58 6.42205e-59 3.03343e-59 1.40775e-59 6.41982e-60 2.87746e-60 1.26782e-60 5.49228e-61 2.33974e-61 9.80355e-62 4.0409e-62 1.63881e-62 6.54052e-63 2.56925e-63 9.93541e-64 3.78292e-64 1.41842e-64 5.2383e-65 1.90569e-65 6.82986e-66 2.40938e-66 8.29284e-67 2.55722e-67 0 
0 1.4133e-92 7.18347e-92 3.48115e-91 1.66865e-90 7.92265e-90 3.72586e-89 1.73541e-88 8.00497e-88 3.6565e-87 1.65379e-86 7.40576e-86 3.28318e-85 1.44084e-84 6.25888e-84 2.69089e-83 1.14492e-82 4.82046e-82 2.00817e-81 8.27684e-81 3.37474e-80 1.36107e-79 5.42933e-79 2.14184e-78 8.35526e-78 3.22267e-77 1.22888e-76 4.63224e-76 1.72588e-75 6.35505e-75 2.31241e-74 8.31374e-74 2.95298e-73 1.03611e-72 3.59065e-72 1.22888e-71 4.15296e-71 1.38567e-70 4.56415e-70 1.48387e-69 4.76109e-69 1.50741e-68 4.70876e-68 1.45101e-67 4.41017e-67 1.32189e-66 3.90685e-66 1.13836e-65 3.2695e-65 9.25477e-65 2.58142e-64 7.09398e-64 1.92037e-63 5.11995e-63 1.34419e-62 3.47449e-62 8.84054e-62 2.21384e-61 5.4552e-61 1.3225e-60 3.15366e-60 7.39588e-60 1.70544e-59 3.86607e-59 8.61404e-59 1.88609e-58 4.05746e-58 8.57423e-58 1.77951e-57 3.62648e-57 7.25549e-57 1.42482e-56 2.7459e-56 5.19226e-56 9.63155e-56 1.75237e-55 3.12658e-55 5.46958e-55 9.38009e-55 1.57675e-54 2.5975e-54 4.19305e-54 6.63177e-54 1.02756e-53 1.55963e-53 2.31866e-53 3.37621e-53 4.81485e-53 6.72497e-53 9.19939e-53 1.23256e-52 1.61762e-52 2.07976e-52 2.61998e-52 3.23463e-52 3.91492e-52 4.64674e-52 5.41127e-52 6.18605e-52 6.94673e-52 7.66916e-52 8.33159e-52 8.91671e-52 9.41323e-52 9.81679e-52 1.01301e-51 1.0362e-51 1.05265e-51 1.06405e-51 1.0722e-51 1.0788e-51 1.08532e-51 1.09284e-51 1.10205e-51 1.11322e-51 1.12626e-51 1.14082e-51 1.15638e-51 1.17236e-51 1.18821e-51 1.20346e-51 1.21783e-51 1.23118e-51 1.2435e-51 1.25496e-51 1.26576e-51 1.27617e-51 1.28643e-51 1.29672e-51 1.3071e-51 1.31751e-51 1.32772e-51 1.33738e-51 1.34599e-51 1.35297e-51 1.35772e-51 1.35968e-51 1.35839e-51 1.35355e-51 1.3451e-51 1.33318e-51 1.31818e-51 1.30066e-51 1.28129e-51 1.2608e-51 1.23987e-51 1.21906e-51 1.19874e-51 1.17909e-51 1.16007e-51 1.14144e-51 1.12288e-51 1.104e-51 1.08449e-51 1.0642e-51 1.04317e-51 1.02176e-51 1.00057e-51 9.80422e-52 9.62316e-52 9.47273e-52 9.36222e-52 9.29872e-52 9.28606e-52 9.32411e-52 9.40863e-52 9.5316e-52 9.68204e-52 9.84729e-52 1.00143e-51 1.01713e-51 1.03085e-51 1.04197e-51 1.05022e-51 1.05567e-51 1.05874e-51 1.06006e-51 1.06037e-51 1.06043e-51 1.06088e-51 1.06216e-51 1.06442e-51 1.06751e-51 1.07096e-51 1.07398e-51 1.07558e-51 1.07461e-51 1.06983e-51 1.06008e-51 1.04434e-51 1.02181e-51 9.91995e-52 9.54751e-52 9.10286e-52 8.59159e-52 8.02238e-52 7.40651e-52 6.75713e-52 6.08856e-52 5.41548e-52 4.75222e-52 4.11204e-52 3.50659e-52 2.94541e-52 2.43562e-52 1.98176e-52 1.58583e-52 1.24747e-52 9.6423e-53 7.3205e-53 5.45707e-53 3.99305e-53 2.86722e-53 2.01992e-53 1.39588e-53 9.461e-54 6.2887e-54 4.09909e-54 2.61999e-54 1.64208e-54 1.0092e-54 6.0823e-55 3.59492e-55 2.0839e-55 1.18487e-55 6.60872e-56 3.61636e-56 1.94174e-56 1.02314e-56 5.29142e-57 2.68638e-57 1.33904e-57 6.55423e-58 3.15084e-58 1.48794e-58 6.90357e-59 3.14753e-59 1.41043e-59 6.21297e-60 2.69085e-60 1.14605e-60 4.80084e-61 1.97838e-61 8.02159e-62 3.2007e-62 1.25702e-62 4.85988e-63 1.85e-63 6.93516e-64 2.56065e-64 9.31372e-65 3.33731e-65 1.17707e-65 4.05063e-66 1.24888e-66 0 
0 6.76674e-92 3.43936e-91 1.66672e-90 7.98926e-90 3.79326e-89 1.7839e-88 8.30904e-88 3.83279e-87 1.75076e-86 7.91867e-86 3.54611e-85 1.57214e-84 6.89965e-84 2.99726e-83 1.28867e-82 5.48328e-82 2.30876e-81 9.61864e-81 3.96465e-80 1.61662e-79 6.52052e-79 2.60123e-78 1.02626e-77 4.00374e-77 1.54441e-76 5.88976e-76 2.22036e-75 8.2735e-75 3.04682e-74 1.10878e-73 3.98686e-73 1.41629e-72 4.96998e-72 1.7226e-71 5.89638e-71 1.99297e-70 6.65079e-70 2.19101e-69 7.12451e-69 2.28635e-68 7.24016e-68 2.26207e-67 6.97196e-67 2.11947e-66 6.35419e-66 1.87838e-65 5.47434e-65 1.57265e-64 4.45265e-64 1.24227e-63 3.41469e-63 9.246e-63 2.46573e-62 6.4752e-62 1.67417e-61 4.26091e-61 1.0673e-60 2.63071e-60 6.37939e-60 1.52168e-59 3.56962e-59 8.23366e-59 1.86704e-58 4.16118e-58 9.11382e-58 1.96118e-57 4.14558e-57 8.60632e-57 1.7544e-56 3.51103e-56 6.89685e-56 1.32952e-55 2.5147e-55 4.66598e-55 8.49152e-55 1.51544e-54 2.65173e-54 4.54866e-54 7.64779e-54 1.26015e-53 2.03461e-53 3.21856e-53 4.98784e-53 7.57171e-53 1.12582e-52 1.63952e-52 2.33838e-52 3.26633e-52 4.46847e-52 5.9873e-52 7.85799e-52 1.01031e-51 1.27273e-51 1.57128e-51 1.90167e-51 2.25703e-51 2.62819e-51 3.00424e-51 3.37334e-51 3.72375e-51 4.04492e-51 4.32845e-51 4.56888e-51 4.76412e-51 4.91549e-51 5.02737e-51 5.10651e-51 5.16116e-51 5.20005e-51 5.23147e-51 5.26249e-51 5.29841e-51 5.34253e-51 5.39618e-51 5.45893e-51 5.52908e-51 5.60409e-51 5.68114e-51 5.75755e-51 5.83115e-51 5.90047e-51 5.96483e-51 6.0243e-51 6.07955e-51 6.13166e-51 6.18188e-51 6.23138e-51 6.28099e-51 6.33106e-51 6.38126e-51 6.43054e-51 6.47713e-51 6.51867e-51 6.55237e-51 6.57532e-51 6.58478e-51 6.57855e-51 6.55523e-51 6.51445e-51 6.45696e-51 6.38458e-51 6.30003e-51 6.20658e-51 6.10774e-51 6.00678e-51 5.9064e-51 5.80844e-51 5.71371e-51 5.62199e-51 5.5322e-51 5.44268e-51 5.35163e-51 5.25753e-51 5.15958e-51 5.0581e-51 4.95471e-51 4.85232e-51 4.755e-51 4.66751e-51 4.5948e-51 4.54139e-51 4.5107e-51 4.50459e-51 4.52299e-51 4.56386e-51 4.62331e-51 4.69605e-51 4.77594e-51 4.85669e-51 4.93255e-51 4.99888e-51 5.0526e-51 5.09241e-51 5.11874e-51 5.13353e-51 5.13984e-51 5.1413e-51 5.14154e-51 5.14369e-51 5.14984e-51 5.16078e-51 5.17575e-51 5.19244e-51 5.20714e-51 5.21498e-51 5.21037e-51 5.18742e-51 5.14046e-51 5.06451e-51 4.95573e-51 4.8117e-51 4.6317e-51 4.41672e-51 4.16942e-51 3.89398e-51 3.59584e-51 3.28135e-51 2.95742e-51 2.63116e-51 2.30951e-51 1.99891e-51 1.70503e-51 1.43252e-51 1.18485e-51 9.64274e-52 7.71782e-52 6.07217e-52 4.69421e-52 3.56435e-52 2.65734e-52 1.94459e-52 1.3964e-52 9.83778e-53 6.7985e-53 4.60784e-53 3.0627e-53 1.99621e-53 1.2758e-53 7.99533e-54 4.91326e-54 2.96075e-54 1.74968e-54 1.01409e-54 5.7649e-55 3.21483e-55 1.75884e-55 9.44183e-56 4.97402e-56 2.57186e-56 1.3054e-56 6.50528e-57 3.18339e-57 1.53e-57 7.2234e-58 3.3506e-58 1.52725e-58 6.84202e-59 3.01317e-59 1.30468e-59 5.55534e-60 2.32658e-60 9.58527e-61 3.88552e-61 1.55e-61 6.08589e-62 2.35238e-62 8.9527e-63 3.35537e-63 1.23862e-63 4.5042e-64 1.61361e-64 5.69006e-65 1.95772e-65 6.03505e-66 0 
0 3.209e-91 1.63105e-90 7.90409e-90 3.78875e-89 1.79889e-88 8.45995e-88 3.94052e-87 1.81771e-86 8.30323e-86 3.75563e-85 1.68189e-84 7.45674e-84 3.27268e-83 1.42174e-82 6.11304e-82 2.60123e-81 1.09532e-80 4.56355e-80 1.88115e-79 7.67111e-79 3.09432e-78 1.23452e-77 4.87093e-77 1.90047e-76 7.33163e-76 2.79628e-75 1.05427e-74 3.92889e-74 1.44704e-73 5.26662e-73 1.89398e-72 6.72909e-72 2.36168e-71 8.18683e-71 2.80275e-70 9.47482e-70 3.1624e-69 1.04199e-68 3.38885e-68 1.08773e-67 3.44517e-67 1.07661e-66 3.3189e-66 1.00916e-65 3.02613e-65 8.94765e-65 2.60829e-64 7.49482e-64 2.12252e-63 5.92321e-63 1.62856e-62 4.41082e-62 1.1766e-61 3.09067e-61 7.99313e-61 2.0349e-60 5.09862e-60 1.25708e-59 3.04927e-59 7.27559e-59 1.70725e-58 3.93912e-58 8.93493e-58 1.99199e-57 4.3642e-57 9.3941e-57 1.98635e-56 4.12496e-56 8.41127e-56 1.68383e-55 3.30859e-55 6.3799e-55 1.20706e-54 2.24031e-54 4.0782e-54 7.2801e-54 1.2742e-53 2.18625e-53 3.67665e-53 6.05947e-53 9.78554e-53 1.54828e-52 2.39982e-52 3.6436e-52 5.41839e-52 7.89172e-52 1.12569e-51 1.57254e-51 2.15146e-51 2.88288e-51 3.78375e-51 4.86488e-51 6.12846e-51 7.56587e-51 9.15632e-51 1.08667e-50 1.26527e-50 1.44618e-50 1.62369e-50 1.79215e-50 1.94647e-50 2.08263e-50 2.19801e-50 2.29161e-50 2.36408e-50 2.41754e-50 2.45526e-50 2.48119e-50 2.49957e-50 2.51436e-50 2.52897e-50 2.54596e-50 2.5669e-50 2.59243e-50 2.62235e-50 2.65583e-50 2.69165e-50 2.72847e-50 2.76499e-50 2.80018e-50 2.83332e-50 2.86409e-50 2.89251e-50 2.91892e-50 2.94383e-50 2.96783e-50 2.99149e-50 3.01521e-50 3.03914e-50 3.06314e-50 3.0867e-50 3.10899e-50 3.12885e-50 3.14497e-50 3.15595e-50 3.16048e-50 3.15751e-50 3.14636e-50 3.12686e-50 3.09937e-50 3.06476e-50 3.02433e-50 2.97966e-50 2.9324e-50 2.88414e-50 2.83616e-50 2.78935e-50 2.74409e-50 2.70027e-50 2.65737e-50 2.6146e-50 2.57109e-50 2.5261e-50 2.47926e-50 2.43071e-50 2.38123e-50 2.33222e-50 2.28562e-50 2.24372e-50 2.2089e-50 2.18331e-50 2.16861e-50 2.16569e-50 2.17451e-50 2.19409e-50 2.22258e-50 2.25744e-50 2.29572e-50 2.3344e-50 2.37074e-50 2.40251e-50 2.42823e-50 2.44728e-50 2.45986e-50 2.46692e-50 2.46992e-50 2.47059e-50 2.47068e-50 2.47169e-50 2.47463e-50 2.47987e-50 2.48706e-50 2.49508e-50 2.50216e-50 2.50598e-50 2.50383e-50 2.49291e-50 2.47049e-50 2.43418e-50 2.38214e-50 2.31319e-50 2.22698e-50 2.12397e-50 2.00543e-50 1.87334e-50 1.73031e-50 1.57936e-50 1.42381e-50 1.26707e-50 1.11247e-50 9.6312e-51 8.21738e-51 6.90575e-51 5.7132e-51 4.65065e-51 3.72303e-51 2.92971e-51 2.26523e-51 1.72024e-51 1.28263e-51 9.38684e-52 6.74103e-52 4.74928e-52 3.28206e-52 2.22445e-52 1.47847e-52 9.63575e-53 6.15782e-53 3.85864e-53 2.3709e-53 1.42851e-53 8.44059e-54 4.89119e-54 2.78004e-54 1.55e-54 8.47834e-55 4.55036e-55 2.39661e-55 1.2389e-55 6.28676e-56 3.13216e-56 1.53235e-56 7.36289e-57 3.47527e-57 1.6116e-57 7.34398e-58 3.28921e-58 1.44816e-58 6.26882e-59 2.66857e-59 1.11731e-59 4.60202e-60 1.86502e-60 7.438e-61 2.91973e-61 1.12829e-61 4.29301e-62 1.60859e-62 5.93669e-63 2.15836e-63 7.73053e-64 2.72542e-64 9.37519e-65 2.8896e-65 0 
0 1.50729e-90 7.66113e-90 3.71261e-89 1.77962e-88 8.44966e-88 3.97382e-87 1.85098e-86 8.53852e-86 3.90046e-85 1.76427e-84 7.90121e-84 3.50319e-83 1.53757e-82 6.67993e-82 2.87232e-81 1.2223e-80 5.14717e-80 2.14467e-79 8.84121e-79 3.60562e-78 1.45453e-77 5.80354e-77 2.29007e-76 8.93595e-76 3.44766e-75 1.31508e-74 4.95878e-74 1.84818e-73 6.80784e-73 2.4781e-72 8.91298e-72 3.16714e-71 1.11173e-70 3.85444e-70 1.31978e-69 4.46233e-69 1.48965e-68 4.9092e-68 1.59692e-67 5.12669e-67 1.6241e-66 5.07633e-66 1.56524e-65 4.76041e-65 1.42781e-64 4.22274e-64 1.23125e-63 3.53883e-63 1.00245e-62 2.79821e-62 7.6956e-62 2.08485e-61 5.56294e-61 1.46168e-60 3.78131e-60 9.62933e-60 2.41343e-59 5.95219e-59 1.44425e-58 3.44706e-58 8.09121e-58 1.86747e-57 4.23723e-57 9.44969e-57 2.07096e-56 4.45926e-56 9.43195e-56 1.95931e-55 3.99653e-55 8.00304e-55 1.57302e-54 3.03416e-54 5.74228e-54 1.06608e-53 1.94122e-53 3.46628e-53 6.06849e-53 1.04149e-52 1.75192e-52 2.88799e-52 4.66489e-52 7.38233e-52 1.14447e-51 1.73792e-51 2.58485e-51 3.76527e-51 5.37146e-51 7.50444e-51 1.02679e-50 1.37594e-50 1.80596e-50 2.32202e-50 2.9251e-50 3.61108e-50 4.36998e-50 5.18595e-50 6.03783e-50 6.90044e-50 7.74656e-50 8.54921e-50 9.28416e-50 9.9322e-50 1.04809e-49 1.09255e-49 1.12693e-49 1.15224e-49 1.17004e-49 1.18223e-49 1.19082e-49 1.19771e-49 1.20452e-49 1.21247e-49 1.22232e-49 1.23435e-49 1.24849e-49 1.26432e-49 1.28128e-49 1.29871e-49 1.31601e-49 1.33268e-49 1.34838e-49 1.36295e-49 1.37642e-49 1.38893e-49 1.40073e-49 1.4121e-49 1.4233e-49 1.43454e-49 1.44588e-49 1.45725e-49 1.46841e-49 1.47897e-49 1.48839e-49 1.49603e-49 1.50123e-49 1.50339e-49 1.50198e-49 1.4967e-49 1.48746e-49 1.47443e-49 1.45803e-49 1.43887e-49 1.4177e-49 1.39532e-49 1.37245e-49 1.34973e-49 1.32756e-49 1.30613e-49 1.28538e-49 1.26507e-49 1.24482e-49 1.22422e-49 1.2029e-49 1.1807e-49 1.15769e-49 1.13422e-49 1.11097e-49 1.08886e-49 1.06897e-49 1.05244e-49 1.0403e-49 1.03332e-49 1.03193e-49 1.03612e-49 1.04542e-49 1.05895e-49 1.07551e-49 1.09368e-49 1.11205e-49 1.1293e-49 1.14438e-49 1.15658e-49 1.16562e-49 1.17158e-49 1.17492e-49 1.17632e-49 1.17663e-49 1.17666e-49 1.17713e-49 1.17852e-49 1.18102e-49 1.18443e-49 1.18826e-49 1.19164e-49 1.19348e-49 1.19249e-49 1.18734e-49 1.17674e-49 1.15954e-49 1.13487e-49 1.10216e-49 1.06125e-49 1.01233e-49 9.5602e-50 8.93247e-50 8.2524e-50 7.53438e-50 6.79413e-50 6.04784e-50 5.3114e-50 4.59958e-50 3.92544e-50 3.29973e-50 2.73058e-50 2.22325e-50 1.78017e-50 1.40111e-50 1.0835e-50 8.22937e-51 6.1366e-51 4.49139e-51 3.22561e-51 2.27262e-51 1.57053e-51 1.06442e-51 7.0743e-52 4.61027e-52 2.94597e-52 1.84581e-52 1.13399e-52 6.83149e-53 4.03582e-53 2.33827e-53 1.32876e-53 7.40694e-54 4.05062e-54 2.17349e-54 1.14448e-54 5.91476e-55 3.00068e-55 1.49459e-55 7.31012e-56 3.51155e-56 1.657e-56 7.68195e-57 3.49968e-57 1.567e-57 6.89725e-58 2.98488e-58 1.27028e-58 5.31715e-59 2.18947e-59 8.87071e-60 3.53685e-60 1.388e-60 5.36237e-61 2.03982e-61 7.64132e-62 2.81943e-62 1.0248e-62 3.66963e-63 1.29345e-63 4.44839e-64 1.37084e-64 0 
0 7.01174e-90 3.56388e-89 1.72708e-88 8.27872e-88 3.93081e-87 1.84867e-86 8.61115e-86 3.97241e-85 1.81468e-84 8.20852e-84 3.67629e-83 1.63004e-82 7.1547e-82 3.1085e-81 1.33671e-80 5.68866e-80 2.39568e-79 9.98278e-79 4.11563e-78 1.67858e-77 6.77207e-77 2.7023e-76 1.06643e-75 4.16168e-75 1.60583e-74 6.12603e-74 2.31023e-73 8.61152e-73 3.17251e-72 1.15498e-71 4.15472e-71 1.47656e-70 5.18385e-70 1.79758e-69 6.15605e-69 2.0818e-68 6.95094e-68 2.29115e-67 7.45437e-67 2.39362e-66 7.58446e-66 2.37114e-65 7.31284e-65 2.22459e-64 6.67391e-64 1.97429e-63 5.75803e-63 1.65538e-62 4.69046e-62 1.30964e-61 3.60277e-61 9.76322e-61 2.60584e-60 6.84895e-60 1.77233e-59 4.51473e-59 1.13189e-58 2.79245e-58 6.77781e-58 1.61821e-57 3.79964e-57 8.77253e-57 1.99112e-56 4.44199e-56 9.73819e-56 2.09756e-55 4.4381e-55 9.22239e-55 1.88177e-54 3.76948e-54 7.41143e-54 1.43003e-53 2.70723e-53 5.02764e-53 9.15756e-53 1.63567e-52 2.86439e-52 4.91725e-52 8.27358e-52 1.36421e-51 2.20407e-51 3.48876e-51 5.40962e-51 8.21619e-51 1.22221e-50 1.7806e-50 2.54048e-50 3.54965e-50 4.85715e-50 6.50916e-50 8.54379e-50 1.09853e-49 1.38384e-49 1.70832e-49 2.06724e-49 2.45307e-49 2.85577e-49 3.26344e-49 3.66316e-49 4.04218e-49 4.38905e-49 4.69469e-49 4.95325e-49 5.16255e-49 5.32412e-49 5.4428e-49 5.52599e-49 5.58269e-49 5.62243e-49 5.65418e-49 5.68562e-49 5.72247e-49 5.76829e-49 5.8245e-49 5.89063e-49 5.96483e-49 6.04435e-49 6.12615e-49 6.20735e-49 6.28559e-49 6.35929e-49 6.42772e-49 6.49093e-49 6.54965e-49 6.60502e-49 6.65839e-49 6.71098e-49 6.76371e-49 6.81694e-49 6.87032e-49 6.92274e-49 6.97233e-49 7.01656e-49 7.05247e-49 7.07694e-49 7.08706e-49 7.08047e-49 7.05569e-49 7.01231e-49 6.95114e-49 6.87412e-49 6.78416e-49 6.68475e-49 6.57963e-49 6.47231e-49 6.36565e-49 6.26162e-49 6.16107e-49 6.06374e-49 5.96847e-49 5.87346e-49 5.77675e-49 5.6767e-49 5.57244e-49 5.46431e-49 5.35403e-49 5.24473e-49 5.14075e-49 5.04722e-49 4.96948e-49 4.91234e-49 4.87951e-49 4.87298e-49 4.89271e-49 4.9365e-49 5.00018e-49 5.07808e-49 5.16362e-49 5.25005e-49 5.33121e-49 5.40212e-49 5.4595e-49 5.50194e-49 5.52993e-49 5.54555e-49 5.55209e-49 5.55345e-49 5.55355e-49 5.55573e-49 5.56226e-49 5.57399e-49 5.59011e-49 5.60817e-49 5.6242e-49 5.63298e-49 5.62851e-49 5.60449e-49 5.5548e-49 5.47409e-49 5.35819e-49 5.20446e-49 5.01203e-49 4.78188e-49 4.51679e-49 4.22116e-49 3.90073e-49 3.56227e-49 3.21315e-49 2.86101e-49 2.51334e-49 2.17713e-49 1.85855e-49 1.56272e-49 1.2935e-49 1.05342e-49 8.43664e-50 6.64145e-50 5.13681e-50 3.90202e-50 2.91004e-50 2.13004e-50 1.52983e-50 1.07788e-50 7.44888e-51 5.04832e-51 3.35501e-51 2.18627e-51 1.3969e-51 8.75126e-52 5.37567e-52 3.23795e-52 1.91254e-52 1.10788e-52 6.29441e-53 3.50793e-53 1.91794e-53 1.02888e-53 5.41634e-54 2.7985e-54 1.41936e-54 7.06772e-55 3.4559e-55 1.65964e-55 7.82914e-56 3.62862e-56 1.65262e-56 7.3976e-57 3.25517e-57 1.40832e-57 5.99171e-58 2.5073e-58 1.03215e-58 4.18065e-59 1.66642e-59 6.53793e-60 2.52517e-60 9.60311e-61 3.59647e-61 1.32666e-61 4.82092e-62 1.72587e-62 6.08182e-63 2.09117e-63 6.44308e-64 0 
0 3.23013e-89 1.6418e-88 7.95635e-88 3.81391e-87 1.81091e-86 8.51694e-86 3.96732e-85 1.83022e-84 8.36112e-84 3.78221e-83 1.69398e-82 7.51136e-82 3.29712e-81 1.43258e-80 6.16074e-80 2.62201e-79 1.1043e-78 4.60195e-78 1.89742e-77 7.73938e-77 3.12268e-76 1.24618e-75 4.91842e-75 1.91961e-74 7.4079e-74 2.82635e-73 1.066e-72 3.97413e-72 1.46429e-71 5.33166e-71 1.91821e-70 6.81831e-70 2.39414e-69 8.30349e-69 2.84416e-68 9.61996e-68 3.21263e-67 1.05915e-66 3.44673e-66 1.10699e-65 3.50842e-65 1.09709e-64 3.38435e-64 1.02978e-63 3.09018e-63 9.14379e-63 2.6675e-62 7.6709e-62 2.17412e-61 6.07217e-61 1.67091e-60 4.52939e-60 1.20928e-59 3.17934e-59 8.22989e-59 2.0971e-58 5.25938e-58 1.29795e-57 3.15142e-57 7.52662e-57 1.76789e-56 4.08307e-56 9.27065e-56 2.06891e-55 4.53725e-55 9.77641e-55 2.06926e-54 4.30143e-54 8.77982e-54 1.75934e-53 3.46032e-53 6.67889e-53 1.26482e-52 2.34966e-52 4.28112e-52 7.64898e-52 1.33989e-51 2.30081e-51 3.8723e-51 6.38657e-51 1.03209e-50 1.63402e-50 2.53421e-50 3.84971e-50 5.72765e-50 8.34567e-50 1.19087e-49 1.6641e-49 2.27726e-49 3.05197e-49 4.0061e-49 5.15098e-49 6.48872e-49 8.00994e-49 9.69233e-49 1.15005e-48 1.33872e-48 1.52966e-48 1.7168e-48 1.89417e-48 2.05639e-48 2.19924e-48 2.31997e-48 2.41758e-48 2.4928e-48 2.54792e-48 2.58642e-48 2.61253e-48 2.63071e-48 2.64519e-48 2.65953e-48 2.67643e-48 2.69755e-48 2.72355e-48 2.75421e-48 2.78866e-48 2.82561e-48 2.86364e-48 2.9014e-48 2.93779e-48 2.97208e-48 3.0039e-48 3.0333e-48 3.06061e-48 3.08636e-48 3.11118e-48 3.13564e-48 3.16016e-48 3.18492e-48 3.20976e-48 3.23415e-48 3.25722e-48 3.27781e-48 3.29453e-48 3.30593e-48 3.31065e-48 3.30759e-48 3.29607e-48 3.27588e-48 3.24742e-48 3.21158e-48 3.16972e-48 3.12347e-48 3.07456e-48 3.02464e-48 2.97504e-48 2.92666e-48 2.87992e-48 2.83468e-48 2.79039e-48 2.74623e-48 2.70126e-48 2.65472e-48 2.60621e-48 2.55587e-48 2.50451e-48 2.4536e-48 2.40515e-48 2.36156e-48 2.32532e-48 2.29869e-48 2.28338e-48 2.28034e-48 2.28955e-48 2.30997e-48 2.33967e-48 2.376e-48 2.41589e-48 2.45619e-48 2.49403e-48 2.52708e-48 2.55381e-48 2.57357e-48 2.58658e-48 2.59383e-48 2.59684e-48 2.59744e-48 2.59745e-48 2.59845e-48 2.60149e-48 2.60696e-48 2.6145e-48 2.62295e-48 2.63048e-48 2.63464e-48 2.63265e-48 2.62154e-48 2.59848e-48 2.56096e-48 2.50701e-48 2.43542e-48 2.34575e-48 2.23845e-48 2.1148e-48 1.97684e-48 1.82724e-48 1.66913e-48 1.50597e-48 1.34132e-48 1.17867e-48 1.02129e-48 8.72096e-49 7.33484e-49 6.07281e-49 4.94687e-49 3.96272e-49 3.12012e-49 2.41366e-49 1.83372e-49 1.3677e-49 1.00119e-49 7.19111e-50 5.0668e-50 3.5015e-50 2.37299e-50 1.57696e-50 1.02753e-50 6.56462e-51 4.11207e-51 2.52557e-51 1.52098e-51 8.98223e-52 5.20209e-52 2.95493e-52 1.64643e-52 8.99958e-53 4.82662e-53 2.54022e-53 1.31212e-53 6.65302e-54 3.31195e-54 1.61897e-54 7.77259e-55 3.66554e-55 1.69838e-55 7.73284e-56 3.4604e-56 1.52222e-56 6.58379e-57 2.80026e-57 1.17146e-57 4.821e-58 1.95214e-58 7.77905e-59 3.05113e-59 1.17812e-59 4.47912e-60 1.67703e-60 6.18458e-61 2.24681e-61 8.04148e-62 2.83305e-62 9.73889e-63 3.00006e-63 0 
0 1.47348e-88 7.48943e-88 3.62951e-87 1.73985e-86 8.2613e-86 3.88549e-85 1.80998e-84 8.35013e-84 3.8148e-83 1.72573e-82 7.7296e-82 3.42759e-81 1.50463e-80 6.53796e-80 2.8118e-79 1.19679e-78 5.04084e-78 2.10085e-77 8.66275e-77 3.53378e-76 1.42595e-75 5.69122e-75 2.24645e-74 8.76869e-74 3.38432e-73 1.2914e-72 4.87136e-72 1.81633e-71 6.69338e-71 2.43752e-70 8.77108e-70 3.11822e-69 1.09511e-68 3.7988e-68 1.30144e-67 4.40278e-67 1.47063e-66 4.84946e-66 1.57847e-65 5.07075e-65 1.60745e-64 5.02776e-64 1.55137e-63 4.72165e-63 1.41725e-62 4.19476e-62 1.22406e-61 3.52103e-61 9.98235e-61 2.78883e-60 7.67651e-60 2.08154e-59 5.55915e-59 1.46204e-58 3.78581e-58 9.65005e-58 2.42098e-57 5.97673e-57 1.45166e-56 3.46826e-56 8.1493e-56 1.88282e-55 4.2765e-55 9.54723e-55 2.09453e-54 4.51474e-54 9.5593e-54 1.98784e-53 4.05893e-53 8.13637e-53 1.60085e-52 3.09094e-52 5.8555e-52 1.08815e-51 1.98327e-51 3.54459e-51 6.21104e-51 1.06685e-50 1.79603e-50 2.96298e-50 4.78946e-50 7.58455e-50 1.17654e-49 1.78763e-49 2.66013e-49 3.87664e-49 5.53243e-49 7.73176e-49 1.05815e-48 1.41822e-48 1.86167e-48 2.39373e-48 3.01537e-48 3.72217e-48 4.50371e-48 5.34348e-48 6.2195e-48 7.10572e-48 7.97398e-48 8.79647e-48 9.54829e-48 1.02098e-47 1.07683e-47 1.12193e-47 1.15662e-47 1.18197e-47 1.19961e-47 1.21151e-47 1.21974e-47 1.22626e-47 1.23273e-47 1.24041e-47 1.25004e-47 1.26196e-47 1.27603e-47 1.29188e-47 1.30889e-47 1.32641e-47 1.3438e-47 1.36057e-47 1.37637e-47 1.39104e-47 1.40459e-47 1.41717e-47 1.42904e-47 1.44047e-47 1.45174e-47 1.46304e-47 1.47445e-47 1.4859e-47 1.49715e-47 1.50779e-47 1.51728e-47 1.52499e-47 1.53025e-47 1.53244e-47 1.53103e-47 1.52572e-47 1.51642e-47 1.5033e-47 1.48677e-47 1.46747e-47 1.44615e-47 1.42361e-47 1.4006e-47 1.37774e-47 1.35545e-47 1.33392e-47 1.31309e-47 1.29269e-47 1.27235e-47 1.25164e-47 1.23019e-47 1.20782e-47 1.18461e-47 1.16091e-47 1.13741e-47 1.11504e-47 1.09491e-47 1.07817e-47 1.06587e-47 1.0588e-47 1.0574e-47 1.06165e-47 1.07109e-47 1.08482e-47 1.10161e-47 1.12004e-47 1.13866e-47 1.15614e-47 1.1714e-47 1.18374e-47 1.19285e-47 1.19885e-47 1.20217e-47 1.20355e-47 1.20381e-47 1.2038e-47 1.20425e-47 1.20565e-47 1.20818e-47 1.21167e-47 1.2156e-47 1.2191e-47 1.22106e-47 1.22018e-47 1.2151e-47 1.2045e-47 1.18721e-47 1.16234e-47 1.12931e-47 1.08791e-47 1.03835e-47 9.81202e-48 9.17412e-48 8.48204e-48 7.75027e-48 6.99469e-48 6.23178e-48 5.47775e-48 4.74779e-48 4.0554e-48 3.4118e-48 2.82552e-48 2.30223e-48 1.84463e-48 1.45269e-48 1.12397e-48 8.54031e-49 6.37061e-49 4.66384e-49 3.35001e-49 2.36044e-49 1.63121e-49 1.10545e-49 7.34573e-50 4.786e-50 3.0573e-50 1.91484e-50 1.17588e-50 7.08027e-51 4.18048e-51 2.42062e-51 1.37467e-51 7.65755e-52 4.18464e-52 2.2437e-52 1.18052e-52 6.09609e-53 3.0901e-53 1.53783e-53 7.51507e-54 3.60683e-54 1.70045e-54 7.8764e-55 3.58505e-55 1.60379e-55 7.05283e-56 3.04948e-56 1.29662e-56 5.4226e-57 2.23093e-57 9.03086e-58 3.59762e-58 1.41066e-58 5.44534e-59 2.06968e-59 7.74692e-60 2.85613e-60 1.03733e-60 3.71169e-61 1.30731e-61 4.49292e-62 1.38376e-62 0 