# vtk DataFile Version 3.0
Gray-Scott Simulation Output
ASCII
DATASET STRUCTURED_POINTS
DIMENSIONS 256 256 1
SPACING 1.0 1.0 1.0
ORIGIN 0 0 0
POINT_DATA 65536
SCALARS u double
LOOKUP_TABLE default
0 0 0 0 0 0 0 0 0 0 0 0 0 0 0 0 0 0 0 0 0 0 0 0 0 0 0 0 0 0 0 0 0 0 0 0 0 0 0 0 0 0 0 0 0 0 0 0 0 0 0 0 0 0 0 0 0 0 0 0 0 0 0 0 0 0 0 0 0 0 0 0 0 0 0 0 0 0 0 0 0 0 0 0 0 0 0 0 0 0 0 0 0 0 0 0 0 0 0 0 0 0 0 0 0 0 0 0 0 0 0 0 0 0 0 0 0 0 0 0 0 0 0 0 0 0 0 0 0 0 0 0 0 0 0 0 0 0 0 0 0 0 0 0 0 0 0 0 0 0 0 0 0 0 0 0 0 0 0 0 0 0 0 0 0 0 0 0 0 0 0 0 0 0 0 0 0 0 0 0 0 0 0 0 0 0 0 0 0 0 0 0 0 0 0 0 0 0 0 0 0 0 0 0 0 0 0 0 0 0 0 0 0 0 0 0 0 0 0 0 0 0 0 0 0 0 0 0 0 0 0 0 0 0 0 0 0 0 0 0 0 0 0 0 0 0 0 0 0 0 0 0 0 0 0 0 
0 3.35838e-215 1.10337e-213 3.58027e-212 1.14831e-210 3.64002e-209 1.14027e-207 3.52957e-206 1.07944e-204 3.2613e-203 9.73301e-202 2.86891e-200 8.35116e-199 2.40041e-197 6.81204e-196 1.90839e-194 5.2771e-193 1.44015e-191 3.87828e-190 1.03046e-188 2.70099e-187 6.98309e-186 1.78049e-184 4.4764e-183 1.10956e-181 2.71099e-180 6.52816e-179 1.54905e-177 3.62135e-176 8.3393e-175 1.8913e-173 4.22357e-172 9.28539e-171 2.00925e-169 4.27847e-168 8.96336e-167 1.84707e-165 3.74305e-164 7.45755e-163 1.46045e-161 2.81054e-160 5.31361e-159 9.86668e-158 1.79892e-156 3.21949e-155 5.65416e-154 9.74137e-153 1.6459e-151 2.72631e-150 4.42574e-149 7.0385e-148 1.09622e-146 1.67136e-145 2.49357e-144 3.63894e-143 5.19205e-142 7.23964e-141 9.86063e-140 1.31125e-138 1.70153e-137 2.15341e-136 2.65647e-135 3.19239e-134 3.73499e-133 4.25149e-132 4.70515e-131 5.05907e-130 5.28083e-129 5.34709e-128 5.24742e-127 4.9865e-126 4.58407e-125 4.07259e-124 3.49289e-123 2.88863e-122 2.30069e-121 1.76243e-120 1.2967e-119 9.14917e-119 6.18061e-118 3.99046e-117 2.45771e-116 1.44098e-115 8.0248e-115 4.23444e-114 2.11149e-113 9.9209e-113 4.3782e-112 1.80845e-111 6.96501e-111 2.49068e-110 8.23212e-110 2.50238e-109 6.95903e-109 1.7608e-108 4.03142e-108 8.31016e-108 1.53633e-107 2.5431e-107 3.7757e-107 5.05787e-107 6.17179e-107 6.93302e-107 7.23265e-107 7.05552e-107 6.49552e-107 5.74389e-107 5.01956e-107 4.47839e-107 4.17449e-107 4.08646e-107 4.15986e-107 4.33338e-107 4.55875e-107 4.82321e-107 5.15317e-107 5.57275e-107 6.04463e-107 6.45753e-107 6.68269e-107 6.65878e-107 6.44463e-107 6.19572e-107 6.064e-107 6.09358e-107 6.2064e-107 6.29123e-107 6.3041e-107 6.27849e-107 6.2563e-107 6.24323e-107 6.24048e-107 6.29134e-107 6.46786e-107 6.81217e-107 7.2929e-107 7.80193e-107 8.18541e-107 8.3036e-107 8.10071e-107 7.64505e-107 7.09874e-107 6.61806e-107 6.25865e-107 5.97351e-107 5.69805e-107 5.42538e-107 5.20459e-107 5.08727e-107 5.0842e-107 5.15715e-107 5.24722e-107 5.32875e-107 5.43233e-107 5.58722e-107 5.73865e-107 5.7454e-107 5.47753e-107 4.92592e-107 4.2211e-107 3.54972e-107 3.05482e-107 2.79805e-107 2.78183e-107 2.98292e-107 3.36892e-107 3.90165e-107 4.53131e-107 5.17871e-107 5.72702e-107 6.06259e-107 6.14505e-107 6.02806e-107 5.80167e-107 5.52232e-107 5.20662e-107 4.8747e-107 4.57376e-107 4.35872e-107 4.26338e-107 4.2935e-107 4.43415e-107 4.6497e-107 4.88337e-107 5.08029e-107 5.23381e-107 5.41172e-107 5.70839e-107 6.13041e-107 6.52693e-107 6.66723e-107 6.4128e-107 5.81823e-107 5.07278e-107 4.35847e-107 3.7575e-107 3.25563e-107 2.79778e-107 2.34083e-107 1.87544e-107 1.41877e-107 9.99613e-108 6.47351e-108 3.81369e-108 2.03173e-108 9.77173e-109 4.24922e-109 1.67641e-109 6.0274e-110 1.98458e-110 6.01336e-111 1.68469e-111 4.3832e-112 1.06344e-112 2.41502e-113 5.15128e-114 1.03531e-114 1.96627e-115 3.53824e-116 6.04728e-117 9.8386e-118 1.52687e-118 2.26462e-119 3.21571e-120 4.3788e-121 5.72652e-122 7.20273e-123 8.72462e-124 1.019e-124 1.1489e-125 1.25182e-126 1.31945e-127 1.34664e-128 1.33203e-129 1.27805e-130 1.19043e-131 1.07725e-132 9.4776e-134 8.1124e-135 6.7601e-136 5.48757e-137 4.34199e-138 3.35062e-139 2.52304e-140 1.85485e-141 1.33197e-142 9.34733e-144 6.41334e-145 4.30402e-146 2.82643e-147 1.81698e-148 1.14387e-149 7.05477e-151 4.26398e-152 2.51825e-153 0 
0 1.10331e-213 3.6198e-212 1.17293e-210 3.75674e-209 1.18919e-207 3.72009e-206 1.14991e-204 3.5119e-203 1.05958e-201 3.15784e-200 9.29525e-199 2.70205e-197 7.75597e-196 2.19802e-194 6.14932e-193 1.6981e-191 4.62788e-190 1.24458e-188 3.30238e-187 8.64427e-186 2.23185e-184 5.68287e-183 1.42683e-181 3.53188e-180 8.61788e-179 2.07243e-177 4.91102e-176 1.14656e-174 2.63679e-173 5.9721e-172 1.33189e-170 2.92423e-169 6.3193e-168 1.34384e-166 2.81162e-165 5.78624e-164 1.17103e-162 2.33006e-161 4.55709e-160 8.75834e-159 1.65369e-157 3.06668e-156 5.58399e-155 9.98058e-154 1.75054e-152 3.01205e-151 5.0826e-150 8.4081e-149 1.36317e-147 2.16514e-146 3.3678e-145 5.12819e-144 7.64123e-143 1.11369e-141 1.587e-140 2.21006e-139 3.00638e-138 3.9928e-137 5.17469e-136 6.54075e-135 8.05866e-134 9.67235e-133 1.13023e-131 1.28493e-130 1.42028e-129 1.52523e-128 1.59013e-127 1.60811e-126 1.57621e-125 1.49602e-124 1.37362e-123 1.21888e-122 1.04413e-121 8.62465e-121 6.86105e-120 5.24963e-119 3.85784e-118 2.71881e-117 1.83452e-116 1.18308e-115 7.27818e-115 4.26242e-114 2.37106e-113 1.24974e-112 6.22494e-112 2.92163e-111 1.28797e-110 5.3145e-110 2.04471e-109 7.30462e-109 2.41198e-108 7.32514e-108 2.03533e-107 5.14571e-107 1.17727e-106 2.42521e-106 4.4812e-106 7.41475e-106 1.10055e-105 1.47405e-105 1.79857e-105 2.02037e-105 2.1077e-105 2.05613e-105 1.89302e-105 1.67405e-105 1.46299e-105 1.30525e-105 1.21667e-105 1.19102e-105 1.21242e-105 1.26297e-105 1.32862e-105 1.40566e-105 1.50179e-105 1.624e-105 1.76143e-105 1.88171e-105 1.94737e-105 1.9406e-105 1.87848e-105 1.80622e-105 1.76796e-105 1.77653e-105 1.80928e-105 1.83392e-105 1.83767e-105 1.83023e-105 1.82374e-105 1.81991e-105 1.81914e-105 1.83403e-105 1.88553e-105 1.98589e-105 2.12595e-105 2.27422e-105 2.3859e-105 2.42034e-105 2.36131e-105 2.22869e-105 2.06963e-105 1.92956e-105 1.8247e-105 1.74144e-105 1.66106e-105 1.58156e-105 1.51723e-105 1.48304e-105 1.48211e-105 1.50333e-105 1.52956e-105 1.55335e-105 1.58354e-105 1.62855e-105 1.67243e-105 1.67412e-105 1.5959e-105 1.43515e-105 1.22981e-105 1.03421e-105 8.89993e-106 8.15155e-106 8.10431e-106 8.69049e-106 9.81568e-106 1.13686e-105 1.32039e-105 1.50906e-105 1.66886e-105 1.76671e-105 1.79084e-105 1.75685e-105 1.69089e-105 1.60943e-105 1.51735e-105 1.42058e-105 1.33284e-105 1.27013e-105 1.2423e-105 1.25105e-105 1.29203e-105 1.35485e-105 1.42297e-105 1.48045e-105 1.52537e-105 1.57742e-105 1.66397e-105 1.78685e-105 1.90216e-105 1.94287e-105 1.86872e-105 1.69557e-105 1.47844e-105 1.27029e-105 1.09509e-105 9.4874e-106 8.15256e-106 6.82084e-106 5.46487e-106 4.13447e-106 2.9134e-106 1.88716e-106 1.11216e-106 5.92779e-107 2.85268e-107 1.24134e-107 4.90115e-108 1.76365e-108 5.81219e-109 1.76279e-109 4.94342e-110 1.28748e-110 3.12691e-111 7.10862e-112 1.51793e-112 3.05411e-113 5.80687e-114 1.04611e-114 1.78997e-115 2.91554e-116 4.52994e-117 6.72657e-118 9.56283e-119 1.30371e-119 1.707e-120 2.14961e-121 2.60695e-122 3.04849e-123 3.44129e-124 3.75413e-125 3.96179e-126 4.04842e-127 4.00943e-128 3.85171e-129 3.59211e-130 3.25464e-131 2.86699e-132 2.45709e-133 2.05007e-134 1.66626e-135 1.32008e-136 1.01997e-137 7.69017e-139 5.66074e-140 4.07017e-141 2.85996e-142 1.96478e-143 1.32026e-144 8.68124e-146 5.58796e-147 3.52243e-148 2.17525e-149 1.31645e-150 7.78482e-152 0 
0 3.57991e-212 1.17287e-210 3.79519e-209 1.21385e-207 3.83711e-206 1.19867e-204 3.70008e-203 1.12846e-201 3.39998e-200 1.01189e-198 2.97445e-197 8.6346e-196 2.47507e-194 7.00469e-193 1.95699e-191 5.39675e-190 1.46879e-188 3.94465e-187 1.04525e-185 2.73233e-184 7.04499e-183 1.79142e-181 4.49173e-180 1.11036e-178 2.70566e-177 6.49785e-176 1.53772e-174 3.58527e-173 8.23418e-172 1.86248e-170 4.14816e-169 9.09539e-168 1.96292e-166 4.16876e-165 8.71045e-164 1.79022e-162 3.61831e-161 7.19009e-160 1.40438e-158 2.69557e-157 5.08295e-156 9.41377e-155 1.71188e-153 3.05577e-152 5.35272e-151 9.19818e-150 1.55011e-148 2.56104e-147 4.14676e-146 6.57792e-145 1.02186e-143 1.55401e-142 2.3126e-141 3.36626e-140 4.79081e-139 6.66327e-138 9.05269e-137 1.20078e-135 1.55426e-134 1.96211e-133 2.41444e-132 2.8943e-131 3.37782e-130 3.83541e-129 4.23419e-128 4.54147e-127 4.72891e-126 4.77652e-125 4.67606e-124 4.43276e-123 4.06515e-122 3.60287e-121 3.08261e-120 2.54324e-119 2.02078e-118 1.54434e-117 1.13357e-116 7.97943e-116 5.37788e-115 3.46417e-114 2.12868e-113 1.24523e-112 6.91906e-112 3.64285e-111 1.8125e-110 8.49762e-110 3.7421e-109 1.54247e-108 5.92848e-108 2.11581e-107 6.9797e-107 2.11778e-106 5.87925e-106 1.48519e-105 3.39544e-105 6.99025e-105 1.29095e-104 2.13519e-104 3.16834e-104 4.24293e-104 5.17668e-104 5.81497e-104 6.06636e-104 5.91808e-104 5.44884e-104 4.81881e-104 4.21137e-104 3.75731e-104 3.50229e-104 3.42849e-104 3.49011e-104 3.63557e-104 3.82441e-104 4.04606e-104 4.32265e-104 4.67425e-104 5.06957e-104 5.41559e-104 5.60473e-104 5.58578e-104 5.40786e-104 5.20067e-104 5.09091e-104 5.11541e-104 5.2093e-104 5.28e-104 5.29082e-104 5.26945e-104 5.25074e-104 5.23965e-104 5.23749e-104 5.28055e-104 5.42898e-104 5.71787e-104 6.12089e-104 6.54742e-104 6.86867e-104 6.96776e-104 6.79813e-104 6.41694e-104 5.95955e-104 5.55643e-104 5.25425e-104 5.01413e-104 4.78247e-104 4.55359e-104 4.36844e-104 4.27003e-104 4.26727e-104 4.32819e-104 4.40365e-104 4.47221e-104 4.55912e-104 4.68833e-104 4.81387e-104 4.81797e-104 4.59237e-104 4.12964e-104 3.53883e-104 2.97598e-104 2.5609e-104 2.34547e-104 2.33188e-104 2.50065e-104 2.82459e-104 3.27167e-104 3.80002e-104 4.3431e-104 4.80306e-104 5.08485e-104 5.15464e-104 5.05706e-104 4.86728e-104 4.63266e-104 4.36745e-104 4.08877e-104 3.83612e-104 3.6555e-104 3.57528e-104 3.60038e-104 3.71829e-104 3.89909e-104 4.09525e-104 4.26096e-104 4.39077e-104 4.54119e-104 4.79057e-104 5.14391e-104 5.47512e-104 5.59177e-104 5.37833e-104 4.88033e-104 4.2557e-104 3.65664e-104 3.15216e-104 2.73068e-104 2.34631e-104 1.96299e-104 1.57279e-104 1.18998e-104 8.38647e-105 5.43362e-105 3.20331e-105 1.70816e-105 8.22517e-106 3.58162e-106 1.41521e-106 5.09683e-107 1.68119e-107 5.10371e-108 1.43265e-108 3.73503e-109 9.08072e-110 2.06658e-110 4.41762e-111 8.89815e-112 1.69372e-112 3.05469e-113 5.23277e-114 8.53306e-115 1.32734e-115 1.97329e-116 2.80864e-117 3.83357e-118 5.02544e-119 6.33609e-120 7.69337e-121 9.00731e-122 1.01802e-122 1.11193e-123 1.17487e-124 1.20204e-125 1.19193e-126 1.14646e-127 1.07052e-128 9.71152e-130 8.56551e-131 7.35007e-132 6.14025e-133 4.99697e-134 3.9638e-135 3.06653e-136 2.31498e-137 1.70623e-138 1.22837e-139 8.64237e-141 5.94486e-142 3.99987e-143 2.63346e-144 1.6973e-145 1.07129e-146 6.62425e-148 4.01417e-149 2.37684e-150 0 
0 1.14813e-210 3.75635e-209 1.21379e-207 3.87678e-206 1.22379e-204 3.81769e-203 1.17682e-201 3.58413e-200 1.07839e-198 3.20504e-197 9.40826e-196 2.7274e-194 7.80726e-193 2.20651e-191 6.15619e-190 1.69536e-188 4.60784e-187 1.23582e-185 3.27024e-184 8.53697e-183 2.19818e-181 5.58204e-180 1.39774e-178 3.45056e-177 8.39684e-176 2.01386e-174 4.75945e-173 1.1082e-171 2.54179e-170 5.74161e-169 1.27708e-167 2.79646e-166 6.02718e-165 1.27833e-163 2.6675e-162 5.47519e-161 1.10517e-159 2.19324e-158 4.27827e-157 8.20097e-156 1.54441e-154 2.85657e-153 5.18789e-152 9.24857e-151 1.61795e-149 2.77672e-148 4.67342e-147 7.7113e-146 1.24699e-144 1.97554e-143 3.06503e-142 4.65525e-141 6.91888e-140 1.00585e-138 1.42969e-137 1.98597e-136 2.69473e-135 3.5699e-134 4.61499e-133 5.81871e-132 7.15116e-131 8.56178e-130 9.97971e-129 1.13176e-127 1.24789e-126 1.33681e-125 1.39028e-124 1.40256e-123 1.37139e-122 1.29846e-121 1.18934e-120 1.05282e-119 8.99714e-119 7.41403e-118 5.88397e-117 4.4914e-116 3.29288e-115 2.31523e-114 1.55858e-113 1.0028e-112 6.15504e-112 3.59649e-111 1.99612e-110 1.04978e-109 5.21747e-109 2.44348e-108 1.07489e-107 4.42603e-107 1.69941e-106 6.05901e-106 1.99685e-105 6.05331e-105 1.67903e-104 4.23811e-104 9.68213e-104 1.99201e-103 3.67688e-103 6.07899e-103 9.01798e-103 1.20747e-102 1.47311e-102 1.65471e-102 1.72626e-102 1.68411e-102 1.55064e-102 1.37142e-102 1.19858e-102 1.06935e-102 9.96764e-103 9.75772e-103 9.93314e-103 1.03469e-102 1.0884e-102 1.15145e-102 1.23013e-102 1.33014e-102 1.44257e-102 1.54099e-102 1.59485e-102 1.58962e-102 1.53923e-102 1.4805e-102 1.44937e-102 1.4563e-102 1.48291e-102 1.50297e-102 1.50605e-102 1.49999e-102 1.49465e-102 1.49147e-102 1.49088e-102 1.50319e-102 1.54548e-102 1.6277e-102 1.74235e-102 1.86367e-102 1.95502e-102 1.98322e-102 1.93503e-102 1.82669e-102 1.69666e-102 1.58195e-102 1.49586e-102 1.4274e-102 1.36138e-102 1.29623e-102 1.24355e-102 1.21554e-102 1.21473e-102 1.23203e-102 1.25349e-102 1.27303e-102 1.29776e-102 1.33443e-102 1.36994e-102 1.37088e-102 1.30655e-102 1.17486e-102 1.00679e-102 8.4666e-103 7.28547e-103 6.67235e-103 6.63369e-103 7.11409e-103 8.03618e-103 9.30875e-103 1.08126e-102 1.23581e-102 1.36671e-102 1.44694e-102 1.46689e-102 1.43921e-102 1.38522e-102 1.31841e-102 1.24288e-102 1.16354e-102 1.09161e-102 1.04018e-102 1.01731e-102 1.02443e-102 1.05797e-102 1.10942e-102 1.16526e-102 1.2125e-102 1.24958e-102 1.29256e-102 1.3636e-102 1.46406e-102 1.55811e-102 1.59116e-102 1.53042e-102 1.38881e-102 1.21115e-102 1.04069e-102 8.97075e-103 7.77063e-103 6.67637e-103 5.58548e-103 4.4753e-103 3.38628e-103 2.38683e-103 1.54679e-103 9.12203e-104 4.8666e-104 2.34474e-104 1.02171e-104 4.04017e-105 1.45627e-105 4.8078e-106 1.46091e-106 4.1049e-107 1.07126e-107 2.60718e-108 5.93968e-109 1.27107e-109 2.56305e-110 4.88407e-111 8.81853e-112 1.51236e-112 2.46903e-113 3.84509e-114 5.72298e-115 8.15523e-116 1.11444e-116 1.46266e-117 1.84633e-118 2.24454e-119 2.63105e-120 2.97727e-121 3.25586e-122 3.44437e-123 3.52834e-124 3.50298e-125 3.37351e-126 3.15395e-127 2.86475e-128 2.52985e-129 2.17358e-130 1.81808e-131 1.48143e-132 1.17661e-133 9.11417e-135 6.88917e-136 5.08403e-137 3.66483e-138 2.58172e-139 1.77817e-140 1.19794e-141 7.89718e-143 5.09639e-144 3.22086e-145 1.99417e-146 1.20999e-147 7.17377e-149 0 
0 3.63927e-209 1.18901e-207 3.8367e-206 1.22372e-204 3.85757e-203 1.20173e-201 3.69927e-200 1.1251e-198 3.38052e-197 1.00333e-195 2.9412e-194 8.51468e-193 2.43402e-191 6.86969e-190 1.91404e-188 5.26393e-187 1.42874e-185 3.8267e-184 1.01125e-182 2.6363e-181 6.77905e-180 1.71915e-178 4.29893e-177 1.05984e-175 2.57564e-174 6.16904e-173 1.45601e-171 3.38569e-170 7.75512e-169 1.74947e-167 3.8861e-166 8.49823e-165 1.8292e-163 3.87451e-162 8.07432e-161 1.65512e-159 3.33647e-158 6.61266e-157 1.28822e-155 2.46616e-154 4.63824e-153 8.56783e-152 1.55401e-150 2.76677e-149 4.83397e-148 8.28534e-147 1.39269e-145 2.29503e-144 3.70653e-143 5.86456e-142 9.0872e-141 1.37843e-139 2.0461e-138 2.97079e-137 4.21729e-136 5.8508e-135 7.92887e-134 1.04908e-132 1.3545e-131 1.70566e-130 2.09363e-129 2.5035e-128 2.9145e-127 3.30115e-126 3.63541e-125 3.88967e-124 4.0403e-123 4.07103e-122 3.97572e-121 3.75973e-120 3.43963e-119 3.04115e-118 2.59578e-117 2.13649e-116 1.69357e-115 1.29123e-114 9.45555e-114 6.64047e-113 4.4651e-112 2.86959e-111 1.7593e-110 1.02682e-109 5.6927e-109 2.99054e-108 1.48469e-107 6.9457e-107 3.05219e-106 1.25548e-105 4.81562e-105 1.71525e-104 5.64754e-104 1.71045e-103 4.74028e-103 1.19556e-102 2.72932e-102 5.61179e-102 1.03529e-101 1.71097e-101 2.53747e-101 3.39706e-101 4.14412e-101 4.65494e-101 4.85624e-101 4.73778e-101 4.36251e-101 3.85847e-101 3.37229e-101 3.00869e-101 2.80447e-101 2.74544e-101 2.79481e-101 2.91119e-101 3.06221e-101 3.2395e-101 3.46077e-101 3.74196e-101 4.05804e-101 4.33479e-101 4.48643e-101 4.47215e-101 4.3311e-101 4.16651e-101 4.07924e-101 4.09862e-101 4.1732e-101 4.22944e-101 4.23812e-101 4.22112e-101 4.20607e-101 4.19709e-101 4.19547e-101 4.23026e-101 4.34937e-101 4.5807e-101 4.90315e-101 5.24425e-101 5.50108e-101 5.58037e-101 5.44502e-101 5.14067e-101 4.77519e-101 4.45255e-101 4.21007e-101 4.01709e-101 3.83113e-101 3.64777e-101 3.49959e-101 3.42081e-101 3.41845e-101 3.46701e-101 3.52735e-101 3.58239e-101 3.65198e-101 3.75484e-101 3.85415e-101 3.85615e-101 3.6748e-101 3.30429e-101 2.83161e-101 2.38123e-101 2.04897e-101 1.87647e-101 1.8656e-101 2.00078e-101 2.26026e-101 2.61835e-101 3.04149e-101 3.47631e-101 3.84457e-101 4.07042e-101 4.1268e-101 4.04915e-101 3.89732e-101 3.70925e-101 3.49663e-101 3.2733e-101 3.07087e-101 2.92608e-101 2.86165e-101 2.88161e-101 2.97593e-101 3.12067e-101 3.27782e-101 3.41091e-101 3.51566e-101 3.63702e-101 3.83708e-101 4.11943e-101 4.38347e-101 4.47602e-101 4.30515e-101 3.90705e-101 3.40754e-101 2.92805e-101 2.52388e-101 2.18606e-101 1.87809e-101 1.57117e-101 1.25891e-101 9.52637e-102 6.71559e-102 4.35305e-102 2.56804e-102 1.37069e-102 6.60783e-103 2.88128e-103 1.14023e-103 4.11333e-104 1.3592e-104 4.13396e-105 1.1627e-105 3.03737e-106 7.39986e-107 1.68762e-107 3.61533e-108 7.29811e-109 1.39225e-109 2.51663e-110 4.32085e-111 7.06217e-112 1.10108e-112 1.64075e-113 2.3408e-114 3.20256e-115 4.20823e-116 5.31842e-117 6.47321e-118 7.59705e-119 8.60715e-120 9.42395e-121 9.98176e-122 1.02376e-122 1.01765e-123 9.81247e-125 9.18518e-126 8.35331e-127 7.38595e-128 6.35373e-129 5.32121e-130 4.34132e-131 3.45239e-132 2.67763e-133 2.02652e-134 1.49741e-135 1.08078e-136 7.62338e-138 5.25733e-139 3.54635e-140 2.34086e-141 1.5126e-142 9.57176e-144 5.93393e-145 3.60516e-146 2.14016e-147 0 
0 1.13997e-207 3.7193e-206 1.19848e-204 3.81727e-203 1.20167e-201 3.73832e-200 1.14917e-198 3.49029e-197 1.04727e-195 3.10401e-194 9.0867e-193 2.62697e-191 7.49925e-190 2.11368e-188 5.88114e-187 1.61521e-185 4.37809e-184 1.17102e-182 3.09039e-181 8.04568e-180 2.06609e-178 5.23251e-177 1.30669e-175 3.21716e-174 7.8079e-173 1.86761e-171 4.40204e-170 1.02225e-168 2.33842e-167 5.26821e-166 1.16868e-164 2.55233e-163 5.48649e-162 1.16059e-160 2.41544e-159 4.94481e-158 9.95493e-157 1.97042e-155 3.8336e-154 7.32945e-153 1.3767e-151 2.53976e-150 4.60058e-149 8.18036e-148 1.42739e-146 2.44337e-145 4.1018e-144 6.75078e-143 1.08887e-141 1.72064e-140 2.66276e-139 4.03399e-138 5.98033e-137 8.67204e-136 1.22952e-134 1.70361e-133 2.30579e-132 3.047e-131 3.92917e-130 4.94166e-129 6.05818e-128 7.23522e-127 8.41262e-126 9.51694e-125 1.04677e-123 1.11861e-122 1.16051e-121 1.16792e-120 1.13919e-119 1.076e-118 9.83208e-118 8.68265e-117 7.40226e-116 6.08529e-115 4.81803e-114 3.66909e-113 2.68371e-112 1.88253e-111 1.26437e-110 8.11641e-110 4.97039e-109 2.89773e-108 1.6047e-107 8.42067e-107 4.17599e-106 1.95152e-105 8.56663e-105 3.52013e-104 1.34884e-103 4.79966e-103 1.57881e-102 4.77736e-102 1.32285e-101 3.33373e-101 7.60506e-101 1.5627e-100 2.88146e-100 4.76014e-100 7.05771e-100 9.44713e-100 1.15239e-99 1.29442e-99 1.35041e-99 1.3175e-99 1.2132e-99 1.07308e-99 9.37897e-100 8.36777e-100 7.79978e-100 7.63571e-100 7.7731e-100 8.09664e-100 8.51635e-100 9.00915e-100 9.62421e-100 1.04057e-99 1.12841e-99 1.20534e-99 1.24754e-99 1.24369e-99 1.20466e-99 1.15907e-99 1.13488e-99 1.14024e-99 1.1609e-99 1.17649e-99 1.17891e-99 1.1742e-99 1.17001e-99 1.16749e-99 1.16706e-99 1.17678e-99 1.20994e-99 1.27427e-99 1.36391e-99 1.45871e-99 1.53008e-99 1.55213e-99 1.51455e-99 1.43003e-99 1.32849e-99 1.23878e-99 1.17128e-99 1.11751e-99 1.06573e-99 1.01472e-99 9.73522e-100 9.51613e-100 9.50938e-100 9.64412e-100 9.81182e-100 9.96507e-100 1.01586e-99 1.04438e-99 1.07183e-99 1.07221e-99 1.02167e-99 9.18631e-100 7.87222e-100 6.62011e-100 5.69619e-100 5.21644e-100 5.18622e-100 5.56226e-100 6.284e-100 7.28006e-100 8.45695e-100 9.66618e-100 1.06903e-99 1.13188e-99 1.14763e-99 1.1261e-99 1.08389e-99 1.03156e-99 9.72395e-100 9.1026e-100 8.53944e-100 8.13651e-100 7.95706e-100 8.01236e-100 8.27456e-100 8.67702e-100 9.11419e-100 9.48489e-100 9.77731e-100 1.01161e-99 1.0673e-99 1.14574e-99 1.21901e-99 1.24464e-99 1.19712e-99 1.0865e-99 9.47667e-100 8.14344e-100 7.01911e-100 6.07913e-100 5.22235e-100 4.36882e-100 3.50063e-100 2.64916e-100 1.86777e-100 1.21096e-100 7.1464e-101 3.81614e-101 1.84075e-101 8.03183e-102 3.18089e-102 1.14845e-102 3.79827e-103 1.15631e-103 3.25534e-104 8.51257e-105 2.07603e-105 4.7396e-106 1.01644e-106 2.05408e-107 3.92287e-108 7.09891e-109 1.2202e-109 1.99663e-110 3.11659e-111 4.64948e-112 6.64101e-113 9.09658e-114 1.19672e-114 1.51424e-115 1.84523e-116 2.16818e-117 2.45943e-118 2.69609e-119 2.85915e-120 2.93601e-121 2.92206e-122 2.821e-123 2.64392e-124 2.40745e-125 2.13129e-126 1.83572e-127 1.53932e-128 1.25743e-129 1.00122e-130 7.77509e-132 5.89185e-133 4.35905e-134 3.15021e-135 2.22485e-136 1.53628e-137 1.03763e-138 6.8579e-140 4.43706e-141 2.81139e-142 1.74514e-143 1.06163e-144 6.31035e-146 0 
0 3.52845e-206 1.1496e-204 3.69927e-203 1.17662e-201 3.69885e-200 1.14911e-198 3.52753e-197 1.06992e-195 3.2059e-194 9.48897e-193 2.77401e-191 8.00874e-190 2.28315e-188 6.42633e-187 1.78565e-185 4.89749e-184 1.32568e-182 3.54107e-181 9.33243e-180 2.42638e-178 6.22245e-177 1.57376e-175 3.92481e-174 9.6502e-173 2.33893e-171 5.58715e-170 1.31516e-168 3.05005e-167 6.96777e-166 1.56768e-164 3.4731e-163 7.57503e-162 1.62619e-160 3.43545e-159 7.14054e-158 1.45987e-156 2.93518e-155 5.80216e-154 1.12738e-152 2.15264e-151 4.03808e-150 7.43989e-149 1.34594e-147 2.39014e-146 4.16519e-145 7.12072e-144 1.19386e-142 1.96234e-141 3.16114e-140 4.98889e-139 7.71069e-138 1.16666e-136 1.72737e-135 2.5017e-134 3.54243e-133 4.90219e-132 6.62669e-131 8.74592e-130 1.1264e-128 1.4149e-127 1.73243e-126 2.06646e-125 2.39978e-124 2.71146e-123 2.97869e-122 3.17923e-121 3.2943e-120 3.3113e-119 3.22596e-118 3.04335e-117 2.77756e-116 2.44991e-115 2.08615e-114 1.71297e-113 1.35464e-112 1.0304e-111 7.52792e-111 5.27447e-110 3.53842e-109 2.26884e-108 1.38783e-107 8.08196e-107 4.47066e-106 2.34339e-105 1.16088e-104 5.4192e-104 2.37637e-103 9.75471e-103 3.73405e-102 1.32741e-101 4.36228e-101 1.3188e-100 3.64864e-100 9.18774e-100 2.09445e-99 4.30103e-99 7.92656e-99 1.30894e-98 1.94021e-98 2.59669e-98 3.16734e-98 3.55765e-98 3.71155e-98 3.6212e-98 3.33466e-98 2.94968e-98 2.57817e-98 2.30022e-98 2.14409e-98 2.09902e-98 2.1368e-98 2.2257e-98 2.341e-98 2.47638e-98 2.64536e-98 2.86005e-98 3.10132e-98 3.31265e-98 3.42873e-98 3.4185e-98 3.31175e-98 3.18694e-98 3.12069e-98 3.13534e-98 3.1919e-98 3.23463e-98 3.24129e-98 3.22837e-98 3.21682e-98 3.20988e-98 3.20873e-98 3.23556e-98 3.3268e-98 3.50364e-98 3.74993e-98 4.01034e-98 4.20638e-98 4.26694e-98 4.16384e-98 3.93185e-98 3.65304e-98 3.40651e-98 3.22075e-98 3.07268e-98 2.93018e-98 2.78994e-98 2.67672e-98 2.6165e-98 2.61459e-98 2.65154e-98 2.69761e-98 2.73979e-98 2.79299e-98 2.87116e-98 2.94614e-98 2.94668e-98 2.80748e-98 2.52423e-98 2.16315e-98 1.81908e-98 1.56515e-98 1.43328e-98 1.42498e-98 1.52836e-98 1.72679e-98 2.00063e-98 2.32416e-98 2.65654e-98 2.93806e-98 3.11089e-98 3.15438e-98 3.09539e-98 2.97943e-98 2.83552e-98 2.67278e-98 2.50192e-98 2.34706e-98 2.23624e-98 2.18684e-98 2.20198e-98 2.27402e-98 2.38463e-98 2.50482e-98 2.60687e-98 2.68756e-98 2.78102e-98 2.93425e-98 3.14965e-98 3.35061e-98 3.42072e-98 3.29012e-98 2.9863e-98 2.60493e-98 2.23854e-98 1.92941e-98 1.6709e-98 1.43531e-98 1.2007e-98 9.62114e-99 7.28147e-99 5.13442e-99 3.32963e-99 1.96563e-99 1.05012e-99 5.06823e-100 2.21293e-100 8.77061e-101 3.16919e-101 1.04907e-101 3.19665e-102 9.00821e-103 2.35796e-103 5.75645e-104 1.31558e-104 2.82437e-105 5.71386e-106 1.09244e-106 1.9791e-107 3.40564e-108 5.57901e-109 8.71843e-110 1.30216e-110 1.86209e-111 2.55361e-112 3.36343e-113 4.26086e-114 5.19841e-115 6.11558e-116 6.94541e-117 7.62294e-118 8.09378e-119 8.3215e-120 8.2921e-121 8.01513e-122 7.52125e-123 6.857e-124 6.07797e-125 5.24156e-126 4.40073e-127 3.59933e-128 2.86952e-129 2.23117e-130 1.69288e-131 1.25405e-132 9.07424e-134 6.41685e-135 4.43654e-136 3.00032e-137 1.98551e-138 1.28627e-139 8.16047e-141 5.07204e-142 3.08947e-143 1.83874e-144 0 
0 1.07904e-204 3.51074e-203 1.12815e-201 3.58332e-200 1.12491e-198 3.48989e-197 1.06985e-195 3.24047e-194 9.69642e-193 2.86607e-191 8.36724e-190 2.41238e-188 6.8679e-187 1.93047e-185 5.3568e-184 1.46722e-182 3.96619e-181 1.05799e-179 2.78456e-178 7.22995e-177 1.85163e-175 4.6768e-174 1.16479e-172 2.86012e-171 6.92288e-170 1.65151e-168 3.88233e-167 8.99173e-166 2.05142e-164 4.60941e-163 1.01984e-161 2.22139e-160 4.76255e-159 1.00481e-157 2.08575e-156 4.2587e-155 8.55127e-154 1.68818e-152 3.27594e-151 6.247e-150 1.17034e-148 2.15349e-147 3.89081e-146 6.9005e-145 1.20097e-143 2.05053e-142 3.43351e-141 5.63646e-140 9.06821e-139 1.42932e-137 2.20632e-136 3.33403e-135 4.93017e-134 7.13121e-133 1.00852e-131 1.39389e-130 1.88188e-129 2.48061e-128 3.19084e-127 4.00312e-126 4.89544e-125 5.83214e-124 6.76453e-123 7.63372e-122 8.37581e-121 8.92883e-120 9.24077e-119 9.27722e-118 9.02722e-117 8.50599e-116 7.75383e-115 6.83102e-114 5.80986e-113 4.76492e-112 3.76375e-111 2.85952e-110 2.08669e-109 1.46036e-108 9.78572e-108 6.26747e-107 3.82944e-106 2.22755e-105 1.23084e-104 6.44462e-104 3.1891e-103 1.48715e-102 6.51444e-102 2.67135e-101 1.02155e-100 3.62795e-100 1.19114e-99 3.59781e-99 9.94536e-99 2.5024e-98 5.70045e-98 1.16988e-97 2.15492e-97 3.55712e-97 5.27124e-97 7.05375e-97 8.60332e-97 9.66336e-97 1.00815e-96 9.83632e-97 9.0584e-97 8.01305e-97 7.00404e-97 6.24897e-97 5.82483e-97 5.70249e-97 5.80521e-97 6.04662e-97 6.35961e-97 6.72716e-97 7.18596e-97 7.7688e-97 8.42374e-97 8.9975e-97 9.31303e-97 9.28619e-97 8.99766e-97 8.66001e-97 8.48068e-97 8.52026e-97 8.67331e-97 8.78902e-97 8.80716e-97 8.77218e-97 8.74075e-97 8.7218e-97 8.7188e-97 8.79198e-97 9.04008e-97 9.52047e-97 1.01892e-96 1.08962e-96 1.14283e-96 1.15927e-96 1.13131e-96 1.06838e-96 9.92726e-97 9.25771e-97 8.75258e-97 8.34961e-97 7.96203e-97 7.58095e-97 7.27345e-97 7.10988e-97 7.10456e-97 7.20471e-97 7.32977e-97 7.44449e-97 7.58901e-97 7.80073e-97 8.00316e-97 8.00326e-97 7.62432e-97 6.85481e-97 5.87427e-97 4.93989e-97 4.25018e-97 3.89193e-97 3.8694e-97 4.15031e-97 4.68944e-97 5.43346e-97 6.31243e-97 7.21535e-97 7.98009e-97 8.44986e-97 8.56854e-97 8.40879e-97 8.09395e-97 7.70282e-97 7.26046e-97 6.79613e-97 6.37533e-97 6.07409e-97 5.93968e-97 5.98066e-97 6.17625e-97 6.47666e-97 6.80326e-97 7.08088e-97 7.30088e-97 7.55572e-97 7.97234e-97 8.55689e-97 9.10161e-97 9.29118e-97 8.93642e-97 8.11179e-97 7.07649e-97 6.08138e-97 5.24141e-97 4.53883e-97 3.89863e-97 3.26129e-97 2.61332e-97 1.97795e-97 1.3949e-97 9.04787e-98 5.34314e-98 2.85582e-98 1.3791e-98 6.02556e-99 2.38993e-99 8.64292e-100 2.86351e-100 8.73351e-101 2.46348e-101 6.45474e-102 1.5774e-102 3.60877e-103 7.75576e-104 1.57073e-104 3.00639e-105 5.45256e-106 9.39332e-107 1.54053e-107 2.41018e-108 3.60393e-109 5.15961e-110 7.08399e-111 9.3415e-112 1.1848e-112 1.44722e-113 1.70459e-114 1.93822e-115 2.12986e-116 2.26415e-117 2.33068e-118 2.32528e-119 2.25037e-120 2.11429e-121 1.92994e-122 1.71279e-123 1.47892e-124 1.24323e-125 1.0181e-126 8.12677e-128 6.32682e-129 4.80645e-130 3.56499e-131 2.58288e-132 1.82879e-133 1.26601e-134 8.57262e-136 5.6803e-137 3.68456e-138 2.34059e-139 1.45663e-140 8.88401e-142 5.29421e-143 0 
0 3.25988e-203 1.05917e-201 3.39883e-200 1.07808e-198 3.37974e-197 1.04708e-195 3.20552e-194 9.69584e-193 2.89731e-191 8.55217e-190 2.49333e-188 7.17879e-187 2.04098e-185 5.72912e-184 1.5876e-182 4.34255e-181 1.17229e-179 3.1229e-178 8.20822e-177 2.12836e-175 5.44354e-174 1.37307e-172 3.41517e-171 8.37471e-170 2.02439e-168 4.82292e-167 1.13226e-165 2.61891e-164 5.96701e-163 1.33898e-161 2.95861e-160 6.43592e-159 1.37802e-157 2.90355e-156 6.0192e-155 1.2274e-153 2.46136e-152 4.85287e-151 9.40484e-150 1.79112e-148 3.35123e-147 6.15848e-146 1.11125e-144 1.96831e-143 3.42128e-142 5.83398e-141 9.75624e-140 1.59955e-138 2.57016e-137 4.04592e-136 6.23743e-135 9.41367e-134 1.39029e-132 2.00844e-131 2.83684e-130 3.91594e-129 5.28028e-128 6.95157e-127 8.93081e-126 1.11904e-124 1.36679e-123 1.62631e-122 1.884e-121 2.12348e-120 2.32707e-119 2.4777e-118 2.56115e-117 2.56815e-116 2.49594e-115 2.34901e-114 2.13873e-113 1.88196e-112 1.59873e-111 1.30964e-110 1.03326e-109 7.84107e-109 5.71527e-108 3.9952e-107 2.67408e-106 1.71072e-105 1.04408e-104 6.06653e-104 3.34837e-103 1.75128e-102 8.6568e-102 4.03256e-101 1.76462e-100 7.22868e-100 2.76157e-99 9.79793e-99 3.21387e-98 9.69874e-98 2.67875e-97 6.73485e-97 1.53311e-96 3.1444e-96 5.78904e-96 9.55222e-96 1.41516e-95 1.89343e-95 2.30924e-95 2.59373e-95 2.70598e-95 2.64024e-95 2.43155e-95 2.15106e-95 1.88026e-95 1.67757e-95 1.56372e-95 1.5309e-95 1.5585e-95 1.62328e-95 1.70724e-95 1.80585e-95 1.92894e-95 2.08529e-95 2.26097e-95 2.4149e-95 2.49966e-95 2.49271e-95 2.41565e-95 2.32538e-95 2.27742e-95 2.28799e-95 2.32891e-95 2.35988e-95 2.36476e-95 2.35541e-95 2.34695e-95 2.34184e-95 2.34107e-95 2.3608e-95 2.42746e-95 2.55641e-95 2.73584e-95 2.92548e-95 3.0682e-95 3.11233e-95 3.03741e-95 2.86873e-95 2.66585e-95 2.48617e-95 2.35043e-95 2.24206e-95 2.13789e-95 2.03557e-95 1.95305e-95 1.90914e-95 1.90768e-95 1.9345e-95 1.96805e-95 1.99888e-95 2.03768e-95 2.09434e-95 2.14834e-95 2.148e-95 2.04606e-95 1.83947e-95 1.57635e-95 1.3256e-95 1.14048e-95 1.04431e-95 1.03827e-95 1.11369e-95 1.25844e-95 1.4582e-95 1.69417e-95 1.93655e-95 2.14184e-95 2.26801e-95 2.30002e-95 2.25727e-95 2.1728e-95 2.06776e-95 1.94894e-95 1.82425e-95 1.71125e-95 1.63034e-95 1.5942e-95 1.60516e-95 1.65763e-95 1.73826e-95 1.82595e-95 1.90058e-95 1.95986e-95 2.02852e-95 2.14045e-95 2.29721e-95 2.44311e-95 2.49376e-95 2.39854e-95 2.17737e-95 1.89964e-95 1.63257e-95 1.40704e-95 1.21835e-95 1.04644e-95 8.7535e-96 7.01447e-96 5.30943e-96 3.74485e-96 2.42959e-96 1.43525e-96 7.67466e-97 3.70825e-97 1.62128e-97 6.43532e-98 2.32916e-98 7.72351e-99 2.35778e-99 6.65703e-100 1.74598e-100 4.27114e-101 9.7817e-102 2.10446e-102 4.26666e-103 8.17535e-104 1.48437e-104 2.56004e-105 4.2033e-106 6.5836e-107 9.85578e-108 1.41265e-108 1.94179e-109 2.5636e-110 3.2553e-111 3.98104e-112 4.69461e-113 5.34443e-114 5.87991e-115 6.25821e-116 6.44992e-117 6.4428e-118 6.24284e-119 5.87255e-120 5.3671e-121 4.76909e-122 4.123e-123 3.47021e-124 2.84534e-125 2.27408e-126 1.77262e-127 1.34834e-128 1.00134e-129 7.26393e-131 5.14969e-132 3.56948e-133 2.42009e-134 1.60561e-135 1.04282e-136 6.63288e-138 4.13316e-139 2.52406e-140 1.50607e-141 0 