# vtk DataFile Version 3.0
Gray-Scott Simulation Output
ASCII
DATASET STRUCTURED_POINTS
DIMENSIONS 256 256 1
SPACING 1.0 1.0 1.0
ORIGIN 0 0 0
POINT_DATA 65536
SCALARS u double
LOOKUP_TABLE default
0 0 0 0 0 0 0 0 0 0 0 0 0 0 0 0 0 0 0 0 0 0 0 0 0 0 0 0 0 0 0 0 0 0 0 0 0 0 0 0 0 0 0 0 0 0 0 0 0 0 0 0 0 0 0 0 0 0 0 0 0 0 0 0 0 0 0 0 0 0 0 0 0 0 0 0 0 0 0 0 0 0 0 0 0 0 0 0 0 0 0 0 0 0 0 0 0 0 0 0 0 0 0 0 0 0 0 0 0 0 0 0 0 0 0 0 0 0 0 0 0 0 0 0 0 0 0 0 0 0 0 0 0 0 0 0 0 0 0 0 0 0 0 0 0 0 0 0 0 0 0 0 0 0 0 0 0 0 0 0 0 0 0 0 0 0 0 0 0 0 0 0 0 0 0 0 0 0 0 0 0 0 0 0 0 0 0 0 0 0 0 0 0 0 0 0 0 0 0 0 0 0 0 0 0 0 0 0 0 0 0 0 0 0 0 0 0 0 0 0 0 0 0 0 0 0 0 0 0 0 0 0 0 0 0 0 0 0 0 0 0 0 0 0 0 0 0 0 0 0 0 0 0 0 0 0 
0 2.63726e-144 3.09173e-143 3.56154e-142 4.0595e-141 4.57811e-140 5.10778e-139 5.63724e-138 6.15379e-137 6.64376e-136 7.09305e-135 7.48772e-134 7.81473e-133 8.06261e-132 8.22209e-131 8.28668e-130 8.25307e-129 8.12143e-128 7.89539e-127 7.58195e-126 7.19109e-125 6.73527e-124 6.22872e-123 5.68672e-122 5.12484e-121 4.55812e-120 4.00047e-119 3.46405e-118 2.95893e-117 2.49281e-116 2.07096e-115 1.69631e-114 1.36964e-113 1.08993e-112 8.54667e-112 6.60258e-111 5.02414e-110 3.76486e-109 2.77769e-108 2.01729e-107 1.4418e-106 1.01389e-105 7.01333e-105 4.77084e-104 3.19075e-103 2.09751e-102 1.35491e-101 8.59783e-101 5.35818e-100 3.27842e-99 1.96878e-98 1.16006e-97 6.70449e-97 3.79937e-96 2.1104e-95 1.14859e-94 6.12288e-94 3.19568e-93 1.63236e-92 8.15702e-92 3.98588e-91 1.9037e-90 8.88293e-90 4.0475e-89 1.80001e-88 7.809e-88 3.30306e-87 1.36143e-86 5.4649e-86 2.13509e-85 8.11384e-85 2.99732e-84 1.07559e-83 3.7468e-83 1.2661e-82 4.14705e-82 1.31566e-81 4.03953e-81 1.19935e-80 3.44052e-80 9.52758e-80 2.54471e-79 6.54932e-79 1.62277e-78 3.86741e-78 8.85693e-78 1.94736e-77 4.10696e-77 8.301e-77 1.60665e-76 2.97555e-76 5.26962e-76 8.91903e-76 1.44211e-75 2.22692e-75 3.28398e-75 4.62529e-75 6.22408e-75 8.00717e-75 9.85718e-75 1.16267e-74 1.31628e-74 1.43366e-74 1.50694e-74 1.53493e-74 1.52315e-74 1.48247e-74 1.42654e-74 1.36908e-74 1.32146e-74 1.29136e-74 1.28245e-74 1.2949e-74 1.32628e-74 1.37241e-74 1.42802e-74 1.48733e-74 1.54461e-74 1.59489e-74 1.63481e-74 1.66311e-74 1.68075e-74 1.69031e-74 1.69502e-74 1.69781e-74 1.70072e-74 1.7049e-74 1.71104e-74 1.7199e-74 1.73271e-74 1.75111e-74 1.7767e-74 1.81027e-74 1.85092e-74 1.89557e-74 1.93903e-74 1.97472e-74 1.9961e-74 1.99821e-74 1.97889e-74 1.93924e-74 1.88323e-74 1.81664e-74 1.74579e-74 1.67653e-74 1.61359e-74 1.56033e-74 1.5187e-74 1.48926e-74 1.47117e-74 1.46222e-74 1.4589e-74 1.4566e-74 1.45001e-74 1.43378e-74 1.40346e-74 1.35664e-74 1.29396e-74 1.21964e-74 1.14112e-74 1.06798e-74 1.01006e-74 9.7564e-75 9.69884e-75 9.93939e-75 1.04482e-74 1.11594e-74 1.19821e-74 1.28141e-74 1.35582e-74 1.41358e-74 1.4498e-74 1.463e-74 1.45499e-74 1.43018e-74 1.39468e-74 1.35524e-74 1.31834e-74 1.28939e-74 1.2722e-74 1.2688e-74 1.27939e-74 1.30276e-74 1.33662e-74 1.37787e-74 1.42269e-74 1.46638e-74 1.50324e-74 1.52686e-74 1.53091e-74 1.51042e-74 1.46295e-74 1.38928e-74 1.29323e-74 1.18058e-74 1.05776e-74 9.30657e-75 8.03956e-75 6.8114e-75 5.64823e-75 4.57153e-75 3.60014e-75 2.74983e-75 2.03112e-75 1.44709e-75 9.92337e-76 6.53907e-76 4.1356e-76 2.50827e-76 1.45821e-76 8.12458e-77 4.33853e-77 2.22106e-77 1.09053e-77 5.13828e-78 2.32475e-78 1.01071e-78 4.22574e-79 1.70041e-79 6.59081e-80 2.46275e-80 8.87894e-81 3.09117e-81 1.04007e-81 3.38478e-82 1.06627e-82 3.25395e-83 9.62681e-84 2.76311e-84 7.69955e-85 2.08438e-85 5.48557e-86 1.40434e-86 3.49943e-87 8.49285e-88 2.00857e-88 4.6317e-89 1.04194e-89 2.28777e-90 4.90536e-91 1.02759e-91 2.10409e-92 4.213e-93 8.2526e-94 1.58212e-94 2.96972e-95 5.45986e-96 9.83564e-97 1.73674e-97 3.00697e-98 5.10661e-99 8.50917e-100 1.39163e-100 2.23333e-101 3.44069e-102 0 
0 3.091e-143 3.62206e-142 4.17061e-141 4.75163e-140 5.35629e-139 5.97336e-138 6.58964e-137 7.19031e-136 7.75942e-135 8.28053e-134 8.73747e-133 9.1151e-132 9.40016e-131 9.58196e-130 9.65307e-129 9.60979e-128 9.45245e-127 9.18545e-126 8.81704e-125 8.35897e-124 7.82581e-123 7.23419e-122 6.60193e-121 5.94713e-120 5.28728e-119 4.63849e-118 4.01486e-117 3.42802e-116 2.88682e-115 2.39731e-114 1.96282e-113 1.58419e-112 1.26016e-111 9.87751e-111 7.62765e-110 5.80184e-109 4.34592e-108 3.20513e-107 2.32681e-106 1.66237e-105 1.16855e-104 8.08005e-104 5.49438e-103 3.67327e-102 2.41379e-101 1.55863e-100 9.88694e-100 6.15929e-99 3.7672e-98 2.26149e-97 1.33205e-96 7.6958e-96 4.3596e-95 2.42074e-94 1.31704e-93 7.01845e-93 3.66186e-92 1.86986e-91 9.34074e-91 4.56281e-90 2.17855e-89 1.01622e-88 4.62895e-88 2.05796e-87 8.92536e-87 3.77413e-86 1.55514e-85 6.24066e-85 2.43749e-84 9.26046e-84 3.41997e-83 1.22693e-82 4.27291e-82 1.44351e-81 4.72701e-81 1.4993e-80 4.60232e-80 1.36614e-79 3.91814e-79 1.0848e-78 2.8968e-78 7.4541e-78 1.84663e-77 4.40016e-77 1.00754e-76 2.21492e-76 4.67059e-76 9.43898e-76 1.82668e-75 3.38269e-75 5.99007e-75 1.01375e-74 1.639e-74 2.53079e-74 3.73189e-74 5.25592e-74 7.07247e-74 9.09842e-74 1.12005e-73 1.32112e-73 1.49569e-73 1.62913e-73 1.71249e-73 1.74442e-73 1.7312e-73 1.68514e-73 1.62175e-73 1.5566e-73 1.5026e-73 1.46847e-73 1.45837e-73 1.4725e-73 1.5081e-73 1.56043e-73 1.62353e-73 1.69083e-73 1.75582e-73 1.8129e-73 1.85822e-73 1.89038e-73 1.91046e-73 1.92137e-73 1.92677e-73 1.93e-73 1.93336e-73 1.93817e-73 1.94518e-73 1.95527e-73 1.96983e-73 1.99072e-73 2.01976e-73 2.05782e-73 2.10391e-73 2.15453e-73 2.20378e-73 2.24423e-73 2.26844e-73 2.27081e-73 2.24887e-73 2.20388e-73 2.14033e-73 2.06477e-73 1.98438e-73 1.9058e-73 1.83439e-73 1.77396e-73 1.72673e-73 1.69333e-73 1.67281e-73 1.66266e-73 1.65887e-73 1.65622e-73 1.64868e-73 1.63017e-73 1.59566e-73 1.54241e-73 1.47116e-73 1.38669e-73 1.29748e-73 1.21438e-73 1.14858e-73 1.10947e-73 1.10292e-73 1.13021e-73 1.18797e-73 1.26873e-73 1.36215e-73 1.45666e-73 1.54119e-73 1.60684e-73 1.64804e-73 1.66312e-73 1.65411e-73 1.62602e-73 1.58578e-73 1.54106e-73 1.49919e-73 1.46632e-73 1.44681e-73 1.44291e-73 1.4549e-73 1.48138e-73 1.51977e-73 1.56655e-73 1.61739e-73 1.66694e-73 1.70875e-73 1.73553e-73 1.74011e-73 1.71684e-73 1.66295e-73 1.57934e-73 1.4703e-73 1.34241e-73 1.20294e-73 1.05857e-73 9.14613e-74 7.75023e-74 6.42777e-74 5.20323e-74 4.09817e-74 3.13062e-74 2.31265e-74 1.64784e-74 1.13012e-74 7.44771e-75 4.71073e-75 2.85738e-75 1.66134e-75 9.25733e-76 4.94398e-76 2.53132e-76 1.24303e-76 5.85759e-77 2.65057e-77 1.15254e-77 4.8195e-78 1.93967e-78 7.51949e-79 2.81028e-79 1.01339e-79 3.52878e-80 1.18756e-80 3.86561e-81 1.21802e-81 3.7179e-82 1.1002e-82 3.15861e-83 8.80386e-84 2.38396e-84 6.27563e-85 1.60704e-85 4.00564e-86 9.72413e-87 2.30044e-87 5.30628e-88 1.19405e-88 2.62256e-89 5.62493e-90 1.1787e-90 2.41426e-91 4.83562e-92 9.47529e-93 1.81713e-93 3.41198e-94 6.27508e-95 1.13081e-95 1.99743e-96 3.45953e-97 5.87724e-98 9.79675e-99 1.60278e-99 2.57312e-100 3.96555e-101 0 
0 3.55983e-142 4.16959e-141 4.79891e-140 5.46501e-139 6.15768e-138 6.86402e-137 7.56882e-136 8.25508e-135 8.90452e-134 9.49833e-133 1.00181e-131 1.04465e-130 1.07684e-129 1.09719e-128 1.10485e-127 1.09942e-126 1.08095e-125 1.04996e-124 1.00742e-123 9.54669e-123 8.93396e-122 8.25505e-121 7.53037e-120 6.78061e-119 6.02574e-118 5.28412e-117 4.57178e-116 3.9019e-115 3.28452e-114 2.72645e-113 2.23139e-112 1.80022e-111 1.43141e-110 1.12153e-109 8.65726e-109 6.58236e-108 4.92861e-107 3.63342e-106 2.63669e-105 1.88303e-104 1.32314e-103 9.14545e-103 6.21646e-102 4.15442e-101 2.72893e-100 1.76146e-99 1.11694e-98 6.95563e-98 4.25271e-97 2.55202e-96 1.50263e-95 8.67819e-95 4.91437e-94 2.72783e-93 1.48361e-92 7.90333e-92 4.12215e-91 2.10419e-90 1.05078e-89 5.13123e-89 2.44916e-88 1.14208e-87 5.20064e-87 2.31141e-86 1.00215e-85 4.23639e-85 1.7451e-84 7.00095e-84 2.73367e-83 1.03829e-82 3.83345e-82 1.3749e-81 4.78701e-81 1.61679e-80 5.29314e-80 1.67846e-79 5.15112e-79 1.52871e-78 4.38346e-78 1.21338e-77 3.23954e-77 8.33448e-77 2.06436e-76 4.91814e-76 1.12597e-75 2.4749e-75 5.21809e-75 1.05441e-74 2.04031e-74 3.77788e-74 6.68923e-74 1.13198e-73 1.83001e-73 2.82556e-73 4.16633e-73 5.86753e-73 7.89522e-73 1.01566e-72 1.25031e-72 1.47477e-72 1.66969e-72 1.81871e-72 1.91188e-72 1.94768e-72 1.93309e-72 1.88186e-72 1.8113e-72 1.73874e-72 1.67858e-72 1.64055e-72 1.6293e-72 1.64506e-72 1.68474e-72 1.74306e-72 1.81339e-72 1.8884e-72 1.96086e-72 2.0245e-72 2.07506e-72 2.11096e-72 2.1334e-72 2.14563e-72 2.15173e-72 2.1554e-72 2.15921e-72 2.16463e-72 2.17251e-72 2.1838e-72 2.20006e-72 2.22336e-72 2.25572e-72 2.29813e-72 2.34945e-72 2.40582e-72 2.46066e-72 2.50568e-72 2.53263e-72 2.53523e-72 2.51075e-72 2.4606e-72 2.38976e-72 2.30555e-72 2.21595e-72 2.12836e-72 2.04877e-72 1.98141e-72 1.92877e-72 1.89156e-72 1.86869e-72 1.85737e-72 1.85312e-72 1.85012e-72 1.84165e-72 1.82092e-72 1.78232e-72 1.72282e-72 1.64325e-72 1.54894e-72 1.44937e-72 1.35662e-72 1.28318e-72 1.23953e-72 1.23219e-72 1.26262e-72 1.32704e-72 1.41712e-72 1.52134e-72 1.62679e-72 1.72114e-72 1.79444e-72 1.84048e-72 1.8574e-72 1.84745e-72 1.81621e-72 1.77141e-72 1.72158e-72 1.67492e-72 1.63827e-72 1.61649e-72 1.61211e-72 1.62544e-72 1.65492e-72 1.69767e-72 1.74979e-72 1.80643e-72 1.86165e-72 1.90823e-72 1.93806e-72 1.94315e-72 1.91719e-72 1.8571e-72 1.76387e-72 1.64227e-72 1.49963e-72 1.34405e-72 1.18295e-72 1.02226e-72 8.6639e-73 7.18672e-73 5.81849e-73 4.5834e-73 3.50173e-73 2.5871e-73 1.84359e-73 1.2645e-73 8.33415e-74 5.27194e-74 3.19811e-74 1.85964e-74 1.03634e-74 5.5353e-75 2.83442e-75 1.39204e-75 6.56067e-76 2.96914e-76 1.29125e-76 5.4004e-77 2.17382e-77 8.42871e-78 3.15067e-78 1.13635e-78 3.95775e-79 1.3322e-79 4.33736e-80 1.36697e-80 4.17352e-81 1.23533e-81 3.54742e-82 9.89006e-83 2.67878e-83 7.0536e-84 1.80675e-84 4.50468e-85 1.09387e-85 2.58852e-86 5.97254e-87 1.34437e-87 2.95363e-88 6.33698e-89 1.32833e-89 2.7216e-90 5.45297e-91 1.06885e-91 2.05047e-92 3.85141e-93 7.08567e-94 1.27732e-94 2.25701e-95 3.91049e-96 6.64571e-97 1.10817e-97 1.81366e-98 2.91272e-99 4.4905e-100 0 
0 4.05654e-141 4.74928e-140 5.46363e-139 6.21921e-138 7.00436e-137 7.80433e-136 8.60187e-135 9.37764e-134 1.01109e-132 1.07804e-131 1.13653e-130 1.18461e-129 1.22059e-128 1.24311e-127 1.25125e-126 1.24456e-125 1.22312e-124 1.18755e-123 1.13894e-122 1.07884e-121 1.00917e-120 9.32083e-120 8.49899e-119 7.64957e-118 6.7951e-117 5.9563e-116 5.1512e-115 4.3946e-114 3.69774e-113 3.06819e-112 2.51005e-111 2.02421e-110 1.60886e-109 1.26006e-108 9.72265e-108 7.38945e-107 5.53073e-106 4.0757e-105 2.95648e-104 2.11059e-103 1.48247e-102 1.02427e-101 6.95966e-101 4.64933e-100 3.05288e-99 1.96982e-98 1.2486e-97 7.77265e-97 4.7505e-96 2.8497e-95 1.67731e-94 9.68357e-94 5.48178e-93 3.04172e-92 1.65375e-91 8.80673e-91 4.59179e-90 2.34314e-89 1.16973e-88 5.71021e-88 2.72464e-87 1.27014e-86 5.78199e-86 2.569e-85 1.1135e-84 4.70571e-84 1.93787e-83 7.7721e-83 3.03394e-82 1.15202e-81 4.25223e-81 1.52471e-80 5.30725e-80 1.79205e-79 5.86555e-79 1.85955e-78 5.70558e-78 1.6929e-77 4.85324e-77 1.34316e-76 3.58532e-76 9.22241e-76 2.2839e-75 5.44029e-75 1.24531e-74 2.73684e-74 5.76959e-74 1.16571e-73 2.25542e-73 4.17575e-73 7.39303e-73 1.25098e-72 2.02224e-72 3.12218e-72 4.60347e-72 6.4829e-72 8.72299e-72 1.12213e-71 1.38136e-71 1.62937e-71 1.84475e-71 2.00948e-71 2.11254e-71 2.15225e-71 2.13634e-71 2.07996e-71 2.00221e-71 1.92222e-71 1.8559e-71 1.81397e-71 1.80157e-71 1.81896e-71 1.86273e-71 1.92706e-71 2.00463e-71 2.08739e-71 2.16733e-71 2.23756e-71 2.29337e-71 2.33303e-71 2.35786e-71 2.37143e-71 2.37824e-71 2.38236e-71 2.38665e-71 2.3927e-71 2.40145e-71 2.41395e-71 2.43192e-71 2.45764e-71 2.49334e-71 2.54009e-71 2.59667e-71 2.65879e-71 2.71921e-71 2.76881e-71 2.79848e-71 2.80131e-71 2.77429e-71 2.71895e-71 2.64082e-71 2.54792e-71 2.44909e-71 2.35247e-71 2.26466e-71 2.19037e-71 2.13231e-71 2.09127e-71 2.06605e-71 2.05355e-71 2.04885e-71 2.04549e-71 2.03606e-71 2.01309e-71 1.97037e-71 1.90457e-71 1.81662e-71 1.71241e-71 1.60241e-71 1.49996e-71 1.41884e-71 1.37062e-71 1.36249e-71 1.39606e-71 1.46717e-71 1.56661e-71 1.68168e-71 1.79813e-71 1.90235e-71 1.98335e-71 2.03428e-71 2.05306e-71 2.04219e-71 2.00781e-71 1.95844e-71 1.9035e-71 1.85203e-71 1.81159e-71 1.78754e-71 1.78267e-71 1.79732e-71 1.8298e-71 1.87692e-71 1.93438e-71 1.99685e-71 2.05774e-71 2.1091e-71 2.14198e-71 2.14758e-71 2.11892e-71 2.0526e-71 1.94971e-71 1.81551e-71 1.65806e-71 1.48629e-71 1.30837e-71 1.13085e-71 9.58596e-72 7.95292e-72 6.43982e-72 5.07356e-72 3.87672e-72 2.86449e-72 2.04148e-72 1.40037e-72 9.2306e-73 5.83957e-73 3.5428e-73 2.06028e-73 1.14827e-73 6.13382e-74 3.14125e-74 1.54292e-74 7.2727e-75 3.29183e-75 1.4318e-75 5.98913e-76 2.41119e-76 9.35067e-77 3.49593e-77 1.26111e-77 4.39313e-78 1.47905e-78 4.8165e-79 1.51831e-79 4.63662e-80 1.37272e-80 3.94292e-81 1.09954e-81 2.97893e-82 7.84599e-83 2.01026e-83 5.01344e-84 1.21775e-84 2.88249e-85 6.65276e-86 1.49793e-86 3.29199e-87 7.06509e-88 1.48141e-88 3.03621e-89 6.08527e-90 1.19317e-90 2.28973e-91 4.30224e-92 7.91776e-93 1.42781e-93 2.52378e-94 4.37423e-95 7.43643e-96 1.24046e-96 2.0309e-97 3.26279e-98 5.03194e-99 0 
0 4.57358e-140 5.35224e-139 6.15454e-138 7.00254e-137 7.88307e-136 8.7795e-135 9.67241e-134 1.05401e-132 1.13592e-131 1.21061e-130 1.27573e-129 1.32912e-128 1.36889e-127 1.39354e-126 1.40205e-125 1.39395e-124 1.36935e-123 1.32895e-122 1.27401e-121 1.20627e-120 1.12789e-119 1.0413e-118 9.49083e-118 8.53869e-117 7.58174e-116 6.64306e-115 5.74274e-114 4.89723e-113 4.11897e-112 3.41631e-111 2.7937e-110 2.25204e-109 1.78923e-108 1.40076e-107 1.0804e-106 8.20801e-106 6.14097e-105 4.52362e-104 3.28012e-103 2.34072e-102 1.64348e-101 1.13508e-100 7.70964e-100 5.14841e-99 3.37932e-98 2.17964e-97 1.38108e-96 8.59425e-96 5.25075e-95 3.14866e-94 1.85261e-93 1.06919e-92 6.05046e-92 3.35611e-91 1.82406e-90 9.71038e-90 5.06126e-89 2.58186e-88 1.28848e-87 6.2879e-87 2.99934e-86 1.39777e-85 6.361e-85 2.82542e-84 1.22428e-83 5.17235e-83 2.12943e-82 8.538e-82 3.33201e-81 1.26486e-80 4.66752e-80 1.6732e-79 5.82266e-79 1.96562e-78 6.43214e-78 2.03871e-77 6.25394e-77 1.85521e-76 5.31749e-76 1.47135e-75 3.9268e-75 1.0099e-74 2.50056e-74 5.95545e-74 1.36304e-73 2.99515e-73 6.31331e-73 1.27541e-72 2.46741e-72 4.56778e-72 8.08639e-72 1.3682e-71 2.21158e-71 3.4143e-71 5.03394e-71 7.08885e-71 9.53807e-71 1.22696e-70 1.5104e-70 1.78159e-70 2.01714e-70 2.19735e-70 2.31018e-70 2.35379e-70 2.33661e-70 2.2752e-70 2.19042e-70 2.10317e-70 2.0308e-70 1.98505e-70 1.97153e-70 1.99051e-70 2.03829e-70 2.10851e-70 2.1932e-70 2.28354e-70 2.37083e-70 2.44753e-70 2.5085e-70 2.55187e-70 2.57904e-70 2.59394e-70 2.60147e-70 2.60606e-70 2.61083e-70 2.61751e-70 2.62712e-70 2.64083e-70 2.66049e-70 2.68859e-70 2.72755e-70 2.77856e-70 2.84027e-70 2.90802e-70 2.97391e-70 3.02799e-70 3.06032e-70 3.06336e-70 3.03384e-70 2.97342e-70 2.88812e-70 2.78671e-70 2.67882e-70 2.57334e-70 2.47749e-70 2.39639e-70 2.33302e-70 2.28822e-70 2.2607e-70 2.24705e-70 2.24189e-70 2.23818e-70 2.2278e-70 2.20259e-70 2.15581e-70 2.08379e-70 1.98758e-70 1.87363e-70 1.75337e-70 1.64137e-70 1.5527e-70 1.49997e-70 1.49106e-70 1.52772e-70 1.60539e-70 1.71403e-70 1.83977e-70 1.96704e-70 2.08096e-70 2.16955e-70 2.2253e-70 2.24594e-70 2.23419e-70 2.19674e-70 2.1429e-70 2.08296e-70 2.02677e-70 1.98261e-70 1.95631e-70 1.95095e-70 1.9669e-70 2.00232e-70 2.05372e-70 2.11641e-70 2.18458e-70 2.25102e-70 2.30707e-70 2.34295e-70 2.34904e-70 2.31772e-70 2.2453e-70 2.13292e-70 1.98635e-70 1.81434e-70 1.62665e-70 1.43219e-70 1.2381e-70 1.0497e-70 8.7103e-71 7.05424e-71 5.55843e-71 4.24777e-71 3.13903e-71 2.23739e-71 1.53492e-71 1.01184e-71 6.40186e-72 3.88431e-72 2.2591e-72 1.25921e-72 6.72712e-73 3.44548e-73 1.69255e-73 7.97899e-74 3.612e-74 1.57128e-74 6.57353e-75 2.64688e-75 1.02664e-75 3.83895e-76 1.3851e-76 4.82598e-77 1.62511e-77 5.29321e-78 1.66894e-78 5.09775e-79 1.50959e-79 4.33707e-80 1.20975e-80 3.27833e-81 8.63679e-82 2.21345e-82 5.52168e-83 1.34157e-83 3.17647e-84 7.33336e-85 1.65165e-85 3.63091e-86 7.79481e-87 1.63492e-87 3.35188e-88 6.72007e-89 1.31807e-89 2.53023e-90 4.75568e-91 8.75518e-92 1.57935e-92 2.7926e-93 4.84182e-94 8.23424e-95 1.37403e-95 2.25038e-96 3.61669e-97 5.57966e-98 0 
0 5.10136e-139 5.96726e-138 6.85868e-137 7.80023e-136 8.77716e-135 9.77093e-134 1.07599e-132 1.172e-131 1.26253e-130 1.34495e-129 1.41667e-128 1.47532e-127 1.5188e-126 1.54548e-125 1.55425e-124 1.54461e-123 1.5167e-122 1.47132e-121 1.40989e-120 1.33436e-119 1.24713e-118 1.15089e-117 1.04853e-116 9.42949e-116 8.36921e-115 7.32999e-114 6.33396e-113 5.39918e-112 4.53929e-111 3.76339e-110 3.07628e-109 2.47883e-108 1.96861e-107 1.54058e-106 1.18777e-105 9.02018e-105 6.74595e-104 4.96732e-103 3.60046e-102 2.56832e-101 1.80259e-100 1.2445e-99 8.44965e-99 5.64046e-98 3.70091e-97 2.38619e-96 1.5114e-95 9.4018e-95 5.74206e-94 3.44205e-93 2.02452e-92 1.16799e-91 6.60731e-91 3.66373e-90 1.99058e-89 1.05933e-88 5.51964e-88 2.81477e-87 1.40426e-86 6.85078e-86 3.26681e-85 1.52195e-84 6.92404e-84 3.07459e-83 1.33186e-82 5.62525e-82 2.31524e-81 9.28044e-81 3.62078e-80 1.37412e-79 5.06941e-79 1.81681e-78 6.3209e-78 2.13331e-77 6.9793e-77 2.21165e-76 6.783e-76 2.01174e-75 5.76501e-75 1.59488e-74 4.25572e-74 1.09431e-73 2.70911e-73 6.45116e-73 1.47628e-72 3.24356e-72 6.83608e-72 1.38086e-71 2.67114e-71 4.94447e-71 8.75252e-71 1.48079e-70 2.39343e-70 3.69484e-70 5.44732e-70 7.67071e-70 1.03207e-69 1.32762e-69 1.63431e-69 1.92776e-69 2.18269e-69 2.37777e-69 2.50002e-69 2.54741e-69 2.52907e-69 2.46288e-69 2.3714e-69 2.27721e-69 2.19908e-69 2.14969e-69 2.13509e-69 2.15559e-69 2.2072e-69 2.28306e-69 2.37454e-69 2.47214e-69 2.56645e-69 2.64934e-69 2.71526e-69 2.76218e-69 2.79162e-69 2.8078e-69 2.81603e-69 2.82109e-69 2.82633e-69 2.83363e-69 2.84409e-69 2.85896e-69 2.88024e-69 2.91061e-69 2.9527e-69 3.00777e-69 3.07438e-69 3.14749e-69 3.21859e-69 3.27693e-69 3.31179e-69 3.31504e-69 3.28312e-69 3.21784e-69 3.12569e-69 3.01614e-69 2.89959e-69 2.78565e-69 2.6821e-69 2.5945e-69 2.52605e-69 2.47767e-69 2.44795e-69 2.4332e-69 2.42761e-69 2.42354e-69 2.41223e-69 2.38488e-69 2.33416e-69 2.25617e-69 2.15203e-69 2.02872e-69 1.89861e-69 1.77745e-69 1.68153e-69 1.62448e-69 1.61482e-69 1.65442e-69 1.73838e-69 1.85584e-69 1.9918e-69 2.12944e-69 2.25267e-69 2.34854e-69 2.40894e-69 2.43139e-69 2.41881e-69 2.37846e-69 2.32036e-69 2.25563e-69 2.19494e-69 2.14721e-69 2.11877e-69 2.11293e-69 2.13011e-69 2.16832e-69 2.2238e-69 2.29149e-69 2.36509e-69 2.43685e-69 2.49738e-69 2.53612e-69 2.54266e-69 2.50881e-69 2.43053e-69 2.30909e-69 2.15066e-69 1.96472e-69 1.76178e-69 1.55145e-69 1.34146e-69 1.13754e-69 9.44085e-70 7.64714e-70 6.02651e-70 4.60609e-70 3.40423e-70 2.42669e-70 1.66495e-70 1.09767e-70 6.94554e-71 4.21458e-71 2.45142e-71 1.36654e-71 7.30125e-72 3.73993e-72 1.83741e-72 8.66291e-73 3.9221e-73 1.70641e-73 7.13987e-74 2.87536e-74 1.11544e-74 4.1717e-75 1.50542e-75 5.24618e-76 1.76694e-76 5.75636e-77 1.81535e-77 5.54616e-78 1.64274e-78 4.72071e-79 1.31708e-79 3.57004e-80 9.40767e-81 2.41164e-81 6.01766e-82 1.46247e-82 3.46369e-83 7.99871e-84 1.80202e-84 3.96264e-85 8.5095e-86 1.78536e-86 3.66145e-87 7.34299e-88 1.4407e-88 2.76654e-89 5.20153e-90 9.57916e-91 1.72857e-91 3.05748e-92 5.30288e-93 9.02145e-94 1.50591e-94 2.46725e-95 3.96664e-96 6.12165e-97 0 
0 5.62861e-138 6.5811e-137 7.56086e-136 8.59498e-135 9.66716e-134 1.0757e-132 1.18405e-131 1.28913e-130 1.3881e-129 1.47807e-128 1.55622e-127 1.61994e-126 1.66696e-125 1.69551e-124 1.70439e-123 1.69309e-122 1.66179e-121 1.61139e-120 1.54345e-119 1.46015e-118 1.36412e-117 1.25832e-116 1.14593e-115 1.03011e-114 9.13898e-114 8.00087e-113 6.91083e-112 5.8885e-111 4.94865e-110 4.10112e-109 3.35099e-108 2.6991e-107 2.14269e-106 1.67614e-105 1.29177e-104 9.80615e-104 7.33089e-103 5.39594e-102 3.90962e-101 2.78779e-100 1.95588e-99 1.34982e-98 9.16129e-98 6.11322e-97 4.00963e-96 2.58429e-95 1.63628e-94 1.0175e-93 6.21204e-93 3.72246e-92 2.18868e-91 1.26227e-90 7.13816e-90 3.95675e-89 2.14906e-88 1.14329e-87 5.95518e-87 3.0359e-86 1.5141e-85 7.38431e-85 3.52014e-84 1.63947e-83 7.45649e-83 3.31005e-82 1.43345e-81 6.05261e-81 2.49044e-80 9.98005e-80 3.8927e-79 1.47694e-78 5.44736e-78 1.95179e-77 6.78889e-77 2.29073e-76 7.49264e-76 2.37381e-75 7.27883e-75 2.15837e-74 6.18402e-74 1.71049e-73 4.5634e-73 1.17323e-72 2.90405e-72 6.91434e-72 1.58206e-71 3.47551e-71 7.32408e-71 1.47928e-70 2.86123e-70 5.29587e-70 9.37381e-70 1.5858e-69 2.56299e-69 3.95639e-69 5.83268e-69 8.21309e-69 1.10502e-68 1.42144e-68 1.7498e-68 2.06401e-68 2.33701e-68 2.54599e-68 2.67704e-68 2.72801e-68 2.70864e-68 2.63806e-68 2.54039e-68 2.43978e-68 2.35632e-68 2.30355e-68 2.28795e-68 2.30987e-68 2.36504e-68 2.44612e-68 2.5439e-68 2.64823e-68 2.74905e-68 2.83769e-68 2.9082e-68 2.95842e-68 2.98998e-68 3.00737e-68 3.01627e-68 3.02178e-68 3.02748e-68 3.03537e-68 3.04664e-68 3.0626e-68 3.08538e-68 3.11787e-68 3.16285e-68 3.22168e-68 3.29282e-68 3.37089e-68 3.4468e-68 3.50907e-68 3.54626e-68 3.54968e-68 3.51554e-68 3.44575e-68 3.34725e-68 3.23016e-68 3.10558e-68 2.98379e-68 2.87312e-68 2.77949e-68 2.70634e-68 2.65464e-68 2.62288e-68 2.60712e-68 2.60112e-68 2.59671e-68 2.58453e-68 2.55514e-68 2.50076e-68 2.41718e-68 2.30564e-68 2.17361e-68 2.03432e-68 1.90464e-68 1.80197e-68 1.7409e-68 1.73052e-68 1.77286e-68 1.86265e-68 1.98831e-68 2.13377e-68 2.28106e-68 2.41297e-68 2.51563e-68 2.58037e-68 2.60453e-68 2.59122e-68 2.54818e-68 2.48615e-68 2.41699e-68 2.35213e-68 2.30109e-68 2.27065e-68 2.26436e-68 2.28267e-68 2.32345e-68 2.3827e-68 2.45502e-68 2.53366e-68 2.61034e-68 2.67501e-68 2.71639e-68 2.72336e-68 2.68714e-68 2.60343e-68 2.47356e-68 2.30413e-68 2.10524e-68 1.88812e-68 1.66303e-68 1.43821e-68 1.21983e-68 1.01256e-68 8.20313e-69 6.46565e-69 4.9424e-69 3.65324e-69 2.60448e-69 1.78712e-69 1.17833e-69 7.45658e-70 4.52509e-70 2.63227e-70 1.46749e-70 7.84141e-71 4.01703e-71 1.97376e-71 9.30684e-72 4.21415e-72 1.83371e-72 7.67359e-73 3.09075e-73 1.19918e-73 4.48562e-74 1.61898e-74 5.64293e-75 1.90093e-75 6.19406e-76 1.95378e-76 5.97035e-77 1.76877e-77 5.08403e-78 1.41877e-78 3.84662e-79 1.0139e-79 2.59977e-80 6.48879e-81 1.57739e-81 3.73687e-82 8.63196e-83 1.94524e-83 4.2788e-84 9.19114e-85 1.92896e-85 3.95713e-86 7.93844e-87 1.55802e-87 2.99276e-88 5.62869e-89 1.03692e-89 1.87175e-90 3.31185e-91 5.74601e-92 9.77867e-93 1.63288e-93 2.6762e-94 4.30409e-95 6.64469e-96 0 
0 6.14263e-137 7.17896e-136 8.24405e-135 9.36747e-134 1.05314e-132 1.17134e-131 1.28876e-130 1.40252e-129 1.50954e-128 1.60668e-127 1.69089e-126 1.75936e-125 1.80964e-124 1.83984e-123 1.84869e-122 1.83565e-121 1.80094e-120 1.74557e-119 1.67128e-118 1.58041e-117 1.47584e-116 1.36082e-115 1.23875e-114 1.11308e-113 9.87104e-113 8.63821e-112 7.45827e-111 6.35237e-110 5.33632e-109 4.4206e-108 3.61058e-107 2.90703e-106 2.30684e-105 1.80383e-104 1.38964e-103 1.05449e-102 7.88011e-102 5.79796e-101 4.19929e-100 2.9932e-99 2.0992e-98 1.44819e-97 9.82522e-97 6.55383e-96 4.29704e-95 2.76852e-94 1.7523e-93 1.08925e-92 6.64777e-92 3.98217e-91 2.34057e-90 1.3494e-89 7.62832e-89 4.22703e-88 2.2951e-87 1.22059e-86 6.35573e-86 3.23906e-85 1.61492e-84 7.87357e-84 3.75223e-83 1.74704e-82 7.94341e-82 3.52519e-81 1.52618e-80 6.44239e-80 2.6501e-79 1.0617e-78 4.14009e-78 1.5704e-77 5.79067e-77 2.0743e-76 7.21335e-76 2.43341e-75 7.95758e-75 2.52059e-74 7.72734e-74 2.29092e-73 6.56258e-73 1.81488e-72 4.84109e-72 1.24442e-71 3.07981e-71 7.33179e-71 1.67735e-70 3.68441e-70 7.76343e-70 1.56785e-69 3.03226e-69 5.61197e-69 9.93256e-69 1.68021e-68 2.71543e-68 4.19151e-68 6.17906e-68 8.70057e-68 1.17058e-67 1.50576e-67 1.85359e-67 2.18646e-67 2.47573e-67 2.69723e-67 2.83623e-67 2.89046e-67 2.87022e-67 2.79576e-67 2.6926e-67 2.58628e-67 2.49807e-67 2.44229e-67 2.42581e-67 2.449e-67 2.50733e-67 2.59307e-67 2.69647e-67 2.80681e-67 2.91345e-67 3.00721e-67 3.08184e-67 3.13502e-67 3.16849e-67 3.18699e-67 3.19651e-67 3.20244e-67 3.20857e-67 3.21702e-67 3.22902e-67 3.24597e-67 3.27011e-67 3.30449e-67 3.35205e-67 3.41422e-67 3.48938e-67 3.57186e-67 3.65204e-67 3.71781e-67 3.75706e-67 3.76063e-67 3.72449e-67 3.65067e-67 3.54651e-67 3.42269e-67 3.29095e-67 3.16216e-67 3.04513e-67 2.94612e-67 2.86878e-67 2.81413e-67 2.78055e-67 2.76389e-67 2.75751e-67 2.75279e-67 2.7398e-67 2.70858e-67 2.65087e-67 2.56227e-67 2.44407e-67 2.3042e-67 2.15668e-67 2.01934e-67 1.91061e-67 1.84592e-67 1.8349e-67 1.87968e-67 1.9747e-67 2.10769e-67 2.26167e-67 2.41761e-67 2.5573e-67 2.66607e-67 2.73473e-67 2.76045e-67 2.74651e-67 2.70111e-67 2.63558e-67 2.56249e-67 2.49389e-67 2.4399e-67 2.40767e-67 2.40096e-67 2.42026e-67 2.46333e-67 2.52594e-67 2.60237e-67 2.6855e-67 2.76656e-67 2.83492e-67 2.87866e-67 2.886e-67 2.84767e-67 2.7591e-67 2.6217e-67 2.44243e-67 2.23195e-67 2.00212e-67 1.76378e-67 1.52565e-67 1.29424e-67 1.07453e-67 8.70665e-68 6.86358e-68 5.24731e-68 3.87909e-68 2.76581e-68 1.89801e-68 1.25156e-68 7.92076e-69 4.80721e-69 2.79663e-69 1.55926e-69 8.33256e-70 4.26906e-70 2.09781e-70 9.89286e-71 4.48003e-71 1.94964e-71 8.15982e-72 3.28705e-72 1.27553e-72 4.77197e-73 1.72262e-73 6.0052e-74 2.02333e-74 6.59416e-75 2.08039e-75 6.35856e-76 1.88419e-76 5.41696e-77 1.51202e-77 4.10041e-78 1.08106e-78 2.77265e-79 6.92205e-80 1.68315e-80 3.98849e-81 9.2157e-82 2.07737e-82 4.57073e-83 9.82107e-84 2.06177e-84 4.23085e-85 8.49014e-86 1.66681e-86 3.20275e-87 6.02555e-88 1.11039e-88 2.00502e-89 3.54884e-90 6.15925e-91 1.04855e-91 1.7515e-92 2.87162e-93 4.62e-94 7.1348e-95 0 
0 6.62978e-136 7.7449e-135 8.89003e-134 1.0097e-132 1.13465e-131 1.26145e-130 1.3873e-129 1.5091e-128 1.62353e-127 1.72726e-126 1.817e-125 1.88976e-124 1.94294e-123 1.97451e-122 1.98316e-121 1.96833e-120 1.93029e-119 1.87015e-118 1.7898e-117 1.69177e-116 1.57918e-115 1.45549e-114 1.32438e-113 1.18953e-112 1.05447e-111 9.22393e-111 7.96074e-110 6.77757e-109 5.6912e-108 4.71269e-107 3.84761e-106 3.09664e-105 2.45632e-104 1.91997e-103 1.47852e-102 1.12151e-101 8.37767e-101 6.16168e-100 4.46102e-99 3.17855e-98 2.22835e-97 1.53671e-96 1.0422e-95 6.94933e-95 4.55469e-94 2.93346e-93 1.85604e-92 1.15332e-91 7.03634e-91 4.21347e-90 2.47567e-89 1.4268e-88 8.06316e-88 4.4665e-87 2.42433e-86 1.2889e-85 6.70929e-85 3.41817e-84 1.70369e-83 8.30385e-83 3.9561e-82 1.84142e-81 8.3701e-81 3.71349e-80 1.60726e-79 6.78279e-79 2.78939e-78 1.11722e-77 4.35545e-77 1.65168e-76 6.08892e-76 2.18062e-75 7.58139e-75 2.55701e-74 8.36001e-74 2.64752e-73 8.11488e-73 2.40537e-72 6.88919e-72 1.90488e-71 5.08034e-71 1.30572e-70 3.23106e-70 7.69082e-70 1.75927e-69 3.8639e-69 8.14075e-69 1.64389e-68 3.17905e-68 5.88316e-68 1.04118e-67 1.76117e-67 2.84613e-67 4.39305e-67 6.47594e-67 9.11834e-67 1.22677e-66 1.57802e-66 1.94254e-66 2.29142e-66 2.59464e-66 2.82689e-66 2.97276e-66 3.02984e-66 3.00894e-66 2.93123e-66 2.82342e-66 2.71229e-66 2.62005e-66 2.56172e-66 2.5445e-66 2.56876e-66 2.62978e-66 2.71947e-66 2.82764e-66 2.94308e-66 3.05466e-66 3.1528e-66 3.23093e-66 3.28664e-66 3.32175e-66 3.34121e-66 3.35128e-66 3.3576e-66 3.36413e-66 3.37307e-66 3.38571e-66 3.40352e-66 3.42883e-66 3.46481e-66 3.51455e-66 3.57955e-66 3.65811e-66 3.74431e-66 3.8281e-66 3.8968e-66 3.93779e-66 3.94146e-66 3.90362e-66 3.82639e-66 3.71742e-66 3.58788e-66 3.45007e-66 3.31534e-66 3.19292e-66 3.08935e-66 3.00846e-66 2.9513e-66 2.9162e-66 2.89876e-66 2.89206e-66 2.88706e-66 2.87337e-66 2.84054e-66 2.77997e-66 2.68704e-66 2.56313e-66 2.41655e-66 2.26198e-66 2.1181e-66 2.00419e-66 1.93641e-66 1.92482e-66 1.97168e-66 2.07115e-66 2.21039e-66 2.37164e-66 2.53497e-66 2.68132e-66 2.79532e-66 2.86735e-66 2.89444e-66 2.88001e-66 2.83263e-66 2.76414e-66 2.68772e-66 2.61596e-66 2.55946e-66 2.5257e-66 2.51862e-66 2.53874e-66 2.58374e-66 2.64918e-66 2.72909e-66 2.81602e-66 2.90079e-66 2.97229e-66 3.01801e-66 3.02567e-66 2.98553e-66 2.89283e-66 2.74902e-66 2.56137e-66 2.34101e-66 2.10034e-66 1.85068e-66 1.60114e-66 1.35855e-66 1.12813e-66 9.14263e-67 7.2084e-67 5.51171e-67 4.07506e-67 2.90586e-67 1.99433e-67 1.3152e-67 8.32423e-68 5.05252e-68 2.93959e-68 1.63911e-68 8.76007e-69 4.48851e-69 2.20587e-69 1.04035e-69 4.71181e-70 2.05075e-70 8.58409e-71 3.45842e-71 1.34222e-71 5.02224e-72 1.81325e-72 6.32221e-73 2.13052e-73 6.94475e-74 2.19142e-74 6.69924e-75 1.98555e-75 5.7096e-76 1.59406e-76 4.32388e-77 1.14024e-77 2.92516e-78 7.30462e-79 1.77663e-79 4.2111e-80 9.73268e-81 2.1945e-81 4.82981e-82 1.03807e-82 2.17989e-83 4.47456e-84 8.9819e-85 1.7639e-85 3.39035e-86 6.3805e-87 1.17617e-87 2.1245e-88 3.76155e-89 6.53058e-90 1.11214e-90 1.85835e-91 3.04785e-92 4.90522e-93 7.5778e-94 0 