# vtk DataFile Version 3.0
Gray-Scott Simulation Output
ASCII
DATASET STRUCTURED_POINTS
DIMENSIONS 256 256 1
SPACING 1.0 1.0 1.0
ORIGIN 0 0 0
POINT_DATA 65536
SCALARS u double
LOOKUP_TABLE default
0 0 0 0 0 0 0 0 0 0 0 0 0 0 0 0 0 0 0 0 0 0 0 0 0 0 0 0 0 0 0 0 0 0 0 0 0 0 0 0 0 0 0 0 0 0 0 0 0 0 0 0 0 0 0 0 0 0 0 0 0 0 0 0 0 0 0 0 0 0 0 0 0 0 0 0 0 0 0 0 0 0 0 0 0 0 0 0 0 0 0 0 0 0 0 0 0 0 0 0 0 0 0 0 0 0 0 0 0 0 0 0 0 0 0 0 0 0 0 0 0 0 0 0 0 0 0 0 0 0 0 0 0 0 0 0 0 0 0 0 0 0 0 0 0 0 0 0 0 0 0 0 0 0 0 0 0 0 0 0 0 0 0 0 0 0 0 0 0 0 0 0 0 0 0 0 0 0 0 0 0 0 0 0 0 0 0 0 0 0 0 0 0 0 0 0 0 0 0 0 0 0 0 0 0 0 0 0 0 0 0 0 0 0 0 0 0 0 0 0 0 0 0 0 0 0 0 0 0 0 0 0 0 0 0 0 0 0 0 0 0 0 0 0 0 0 0 0 0 0 0 0 0 0 0 0 
0 2.68448e-111 1.85996e-110 1.2502e-109 8.31652e-109 5.47683e-108 3.57032e-107 2.30375e-106 1.47121e-105 9.29776e-105 5.81442e-104 3.59762e-103 2.20222e-102 1.33351e-101 7.98689e-101 4.73103e-100 2.77131e-99 1.60514e-98 9.19167e-98 5.20326e-97 2.91142e-96 1.61001e-95 8.79826e-95 4.75063e-94 2.53417e-93 1.33535e-92 6.94972e-92 3.57187e-91 1.81267e-90 9.08183e-90 4.49156e-89 2.19242e-88 1.05606e-87 5.01904e-87 2.35317e-86 1.08822e-85 4.96289e-85 2.2317e-84 9.89339e-84 4.32298e-83 1.86153e-82 7.8982e-82 3.3012e-81 1.35899e-80 5.50906e-80 2.19869e-79 8.63745e-79 3.33925e-78 1.27017e-77 4.7525e-77 1.74877e-76 6.32693e-76 2.25008e-75 7.86391e-75 2.70028e-74 9.1074e-74 3.01636e-73 9.80748e-73 3.12967e-72 9.79903e-72 3.00945e-71 9.06326e-71 2.67574e-70 7.74165e-70 2.19441e-69 6.09202e-69 1.65585e-68 4.40511e-68 1.14663e-67 2.91927e-67 7.26711e-67 1.76822e-66 4.20382e-66 9.76194e-66 2.21339e-65 4.89841e-65 1.05774e-64 2.22777e-64 4.57495e-64 9.15744e-64 1.78604e-63 3.39307e-63 6.27691e-63 1.13037e-62 1.98103e-62 3.3779e-62 5.6025e-62 9.0366e-62 1.41723e-61 2.16084e-61 3.20265e-61 4.614e-61 6.46144e-61 8.79614e-61 1.1642e-60 1.49842e-60 1.87609e-60 2.28603e-60 2.71257e-60 3.1368e-60 3.53858e-60 3.89896e-60 4.20262e-60 4.4399e-60 4.60797e-60 4.71099e-60 4.75922e-60 4.76725e-60 4.75179e-60 4.72933e-60 4.71409e-60 4.71665e-60 4.74313e-60 4.79524e-60 4.87079e-60 4.9647e-60 5.07016e-60 5.17985e-60 5.28702e-60 5.3863e-60 5.47423e-60 5.54935e-60 5.61207e-60 5.66429e-60 5.70889e-60 5.74926e-60 5.78883e-60 5.83078e-60 5.87767e-60 5.93121e-60 5.99197e-60 6.0591e-60 6.13014e-60 6.20098e-60 6.2661e-60 6.31906e-60 6.35328e-60 6.363e-60 6.34412e-60 6.29499e-60 6.21673e-60 6.11315e-60 5.99032e-60 5.85571e-60 5.71722e-60 5.58218e-60 5.45644e-60 5.34371e-60 5.24517e-60 5.15944e-60 5.08281e-60 5.00986e-60 4.93433e-60 4.85014e-60 4.75252e-60 4.63909e-60 4.51061e-60 4.37133e-60 4.2288e-60 4.09309e-60 3.97546e-60 3.88681e-60 3.83597e-60 3.82827e-60 3.86463e-60 3.94126e-60 4.05004e-60 4.17964e-60 4.31699e-60 4.44901e-60 4.56426e-60 4.65428e-60 4.71442e-60 4.74415e-60 4.74674e-60 4.72848e-60 4.6976e-60 4.66306e-60 4.63334e-60 4.61541e-60 4.61398e-60 4.63104e-60 4.66562e-60 4.71392e-60 4.76958e-60 4.82419e-60 4.86799e-60 4.89069e-60 4.88243e-60 4.83471e-60 4.74131e-60 4.59886e-60 4.4072e-60 4.16932e-60 3.89097e-60 3.58002e-60 3.24573e-60 2.89797e-60 2.54662e-60 2.20096e-60 1.86935e-60 1.55888e-60 1.27517e-60 1.0222e-60 8.02212e-61 6.15789e-61 4.61944e-61 3.38397e-61 2.41909e-61 1.68663e-61 1.14637e-61 7.59298e-62 4.89963e-62 3.07964e-62 1.88527e-62 1.12401e-62 6.52683e-63 3.69148e-63 2.03386e-63 1.09177e-63 5.71107e-64 2.91191e-64 1.44751e-64 7.01715e-65 3.31834e-65 1.53119e-65 6.89635e-66 3.03268e-66 1.30253e-66 5.46569e-67 2.24149e-67 8.98684e-68 3.52366e-68 1.35157e-68 5.07318e-69 1.86405e-69 6.70664e-70 2.36352e-70 8.1612e-71 2.76197e-71 9.16393e-72 2.98174e-72 9.51719e-73 2.9807e-73 9.16263e-74 2.76522e-74 8.19527e-75 2.38579e-75 6.82411e-76 1.91829e-76 5.30077e-77 1.44019e-77 3.84738e-78 1.00744e-78 2.44931e-79 0 
0 1.85885e-110 1.2877e-109 8.65401e-109 5.75579e-108 3.78983e-107 2.47016e-106 1.59361e-105 1.01754e-104 6.42961e-104 4.02017e-103 2.48706e-102 1.52218e-101 9.21585e-101 5.51889e-100 3.26864e-99 1.9144e-98 1.10866e-97 6.34776e-97 3.59288e-96 2.01008e-95 1.11143e-94 6.07287e-94 3.27864e-93 1.74874e-92 9.21367e-92 4.79463e-91 2.46397e-90 1.25029e-89 6.26353e-89 3.0974e-88 1.51176e-87 7.28122e-87 3.46017e-86 1.62215e-85 7.50097e-85 3.42059e-84 1.53805e-83 6.81783e-83 2.97889e-82 1.28267e-81 5.44183e-81 2.27439e-80 9.3624e-80 3.79513e-79 1.51459e-78 5.94976e-78 2.30011e-77 8.74877e-77 3.27339e-76 1.20448e-75 4.35766e-75 1.54972e-74 5.41616e-74 1.85978e-73 6.27263e-73 2.0775e-72 6.75495e-72 2.15561e-71 6.74942e-71 2.07292e-70 6.24302e-70 1.84319e-69 5.33309e-69 1.51176e-68 4.19709e-68 1.14086e-67 3.03525e-67 7.90111e-67 2.01172e-66 5.00825e-66 1.21868e-65 2.89756e-65 6.72911e-65 1.52586e-64 3.37712e-64 7.29297e-64 1.53615e-63 3.15489e-63 6.31551e-63 1.23186e-62 2.34044e-62 4.32996e-62 7.79812e-62 1.36676e-61 2.33065e-61 3.8658e-61 6.23575e-61 9.78015e-61 1.49124e-60 2.21031e-60 3.18448e-60 4.45967e-60 6.07123e-60 8.03563e-60 1.03427e-59 1.29496e-59 1.57794e-59 1.87238e-59 2.16522e-59 2.44257e-59 2.69136e-59 2.90102e-59 3.06487e-59 3.18098e-59 3.25219e-59 3.2856e-59 3.29126e-59 3.28069e-59 3.26526e-59 3.25477e-59 3.25652e-59 3.27472e-59 3.31056e-59 3.36254e-59 3.42715e-59 3.49972e-59 3.5752e-59 3.64896e-59 3.71729e-59 3.77782e-59 3.82954e-59 3.87274e-59 3.90871e-59 3.93944e-59 3.96725e-59 3.99452e-59 4.02341e-59 4.05569e-59 4.09254e-59 4.13434e-59 4.18051e-59 4.22936e-59 4.27807e-59 4.32283e-59 4.35923e-59 4.38274e-59 4.38939e-59 4.37638e-59 4.34256e-59 4.28871e-59 4.21745e-59 4.13294e-59 4.04034e-59 3.94508e-59 3.85219e-59 3.76571e-59 3.68818e-59 3.62041e-59 3.56144e-59 3.50873e-59 3.45853e-59 3.40654e-59 3.34856e-59 3.28133e-59 3.20318e-59 3.11466e-59 3.0187e-59 2.92049e-59 2.82698e-59 2.74592e-59 2.68483e-59 2.64978e-59 2.64445e-59 2.66949e-59 2.72226e-59 2.79719e-59 2.88647e-59 2.98111e-59 3.07208e-59 3.15151e-59 3.21356e-59 3.25505e-59 3.27559e-59 3.27743e-59 3.2649e-59 3.24368e-59 3.21991e-59 3.19945e-59 3.1871e-59 3.1861e-59 3.19781e-59 3.22158e-59 3.2548e-59 3.29307e-59 3.33064e-59 3.36076e-59 3.37636e-59 3.37064e-59 3.33776e-59 3.27341e-59 3.17527e-59 3.04322e-59 2.87929e-59 2.68743e-59 2.47305e-59 2.24252e-59 2.00263e-59 1.76017e-59 1.52156e-59 1.29257e-59 1.07811e-59 8.82057e-60 7.0719e-60 5.55084e-60 4.2615e-60 3.19722e-60 2.34237e-60 1.67463e-60 1.16766e-60 7.9368e-61 5.25713e-61 3.39243e-61 2.13232e-61 1.30535e-61 7.78248e-62 4.51897e-62 2.55579e-62 1.40808e-62 7.55822e-63 3.95353e-63 2.01569e-63 1.00194e-63 4.85685e-64 2.29661e-64 1.05967e-64 4.77233e-65 2.0985e-65 9.01249e-66 3.78159e-66 1.55075e-66 6.21706e-67 2.43752e-67 9.34908e-68 3.50904e-68 1.28927e-68 4.63847e-69 1.6346e-69 5.64404e-70 1.91003e-70 6.33712e-71 2.06191e-71 6.58113e-72 2.06112e-72 6.33579e-73 1.91209e-73 5.66683e-74 1.64972e-74 4.71875e-75 1.32648e-75 3.6655e-76 9.95917e-77 2.6606e-77 6.967e-78 1.69388e-78 0 
0 1.24865e-109 8.64847e-109 5.81118e-108 3.86434e-107 2.54399e-106 1.65786e-105 1.06938e-104 6.82693e-104 4.31309e-103 2.69636e-102 1.66782e-101 1.02061e-100 6.17822e-100 3.69925e-99 2.1906e-98 1.28282e-97 7.42797e-97 4.25235e-96 2.40653e-95 1.34618e-94 7.44241e-94 4.06601e-93 2.19489e-92 1.17055e-91 6.1666e-91 3.20861e-90 1.64872e-89 8.36517e-89 4.19022e-88 2.07191e-87 1.01114e-86 4.86959e-86 2.3139e-85 1.08468e-84 5.01523e-84 2.28686e-83 1.02819e-82 4.55743e-82 1.99113e-81 8.57298e-81 3.63695e-80 1.51996e-79 6.25654e-79 2.53603e-78 1.01206e-77 3.97553e-77 1.53685e-76 5.84545e-76 2.18706e-75 8.04741e-75 2.91142e-74 1.03539e-73 3.61861e-73 1.24255e-72 4.19089e-72 1.38805e-71 4.51331e-71 1.44031e-70 4.50988e-70 1.38515e-69 4.17183e-69 1.23175e-68 3.56413e-68 1.01038e-67 2.80527e-67 7.62583e-67 2.02898e-66 5.28207e-66 1.34499e-65 3.34866e-65 8.14915e-65 1.93772e-64 4.50044e-64 1.02059e-63 2.25904e-63 4.8789e-63 1.02776e-62 2.11098e-62 4.22617e-62 8.24401e-62 1.56644e-61 2.89827e-61 5.22014e-61 9.14996e-61 1.5604e-60 2.58839e-60 4.17549e-60 6.54924e-60 9.98659e-60 1.48028e-59 2.13277e-59 2.98692e-59 4.0664e-59 5.38224e-59 6.92759e-59 8.67386e-59 1.05694e-58 1.25417e-58 1.45033e-58 1.63612e-58 1.80279e-58 1.94325e-58 2.05305e-58 2.13088e-58 2.17865e-58 2.20111e-58 2.20497e-58 2.19796e-58 2.18767e-58 2.18067e-58 2.18182e-58 2.19396e-58 2.21787e-58 2.25256e-58 2.2957e-58 2.34414e-58 2.39454e-58 2.44379e-58 2.48942e-58 2.52984e-58 2.56439e-58 2.59325e-58 2.61729e-58 2.63784e-58 2.65643e-58 2.67466e-58 2.69397e-58 2.71553e-58 2.74013e-58 2.76803e-58 2.79884e-58 2.83143e-58 2.86391e-58 2.89377e-58 2.91804e-58 2.93371e-58 2.93813e-58 2.92943e-58 2.90684e-58 2.87088e-58 2.82332e-58 2.76691e-58 2.70511e-58 2.64154e-58 2.57955e-58 2.52184e-58 2.47011e-58 2.4249e-58 2.38555e-58 2.35037e-58 2.31686e-58 2.28214e-58 2.24341e-58 2.19847e-58 2.14624e-58 2.08707e-58 2.02291e-58 1.95726e-58 1.89474e-58 1.84054e-58 1.79969e-58 1.77625e-58 1.77267e-58 1.78939e-58 1.82466e-58 1.87474e-58 1.93442e-58 1.99768e-58 2.0585e-58 2.11162e-58 2.15313e-58 2.18089e-58 2.19466e-58 2.19593e-58 2.18759e-58 2.17344e-58 2.15758e-58 2.14391e-58 2.13565e-58 2.13497e-58 2.14277e-58 2.15862e-58 2.18078e-58 2.20632e-58 2.23139e-58 2.25149e-58 2.26189e-58 2.25805e-58 2.23607e-58 2.19306e-58 2.12745e-58 2.03917e-58 1.92956e-58 1.80125e-58 1.65784e-58 1.50358e-58 1.34301e-58 1.18065e-58 1.02082e-58 8.67374e-59 7.23606e-59 5.92137e-59 4.74833e-59 3.72765e-59 2.86222e-59 2.14768e-59 1.57362e-59 1.12513e-59 7.84568e-60 5.33314e-60 3.53268e-60 2.27969e-60 1.43291e-60 8.77186e-61 5.2297e-61 3.0366e-61 1.71734e-61 9.46107e-62 5.0782e-62 2.65614e-62 1.35413e-62 6.73055e-63 3.26238e-63 1.54254e-63 7.11683e-64 3.20492e-64 1.40917e-64 6.05156e-65 2.53902e-65 1.04112e-65 4.17365e-66 1.63625e-66 6.27545e-67 2.35526e-67 8.65308e-68 3.11299e-68 1.09697e-68 3.7875e-69 1.2817e-69 4.25227e-70 1.38352e-70 4.41575e-71 1.38293e-71 4.25097e-72 1.28289e-72 3.80206e-73 1.10685e-73 3.16596e-74 8.89982e-75 2.45934e-75 6.68215e-76 1.78518e-76 4.67476e-77 1.1366e-77 0 
0 8.30073e-109 5.7483e-108 3.86179e-107 2.56758e-106 1.69001e-105 1.10115e-104 7.10165e-104 4.53296e-103 2.86335e-102 1.78976e-101 1.10687e-100 6.77238e-100 4.099e-99 2.45393e-98 1.45294e-97 8.50721e-97 4.92528e-96 2.81922e-95 1.59526e-94 8.92247e-94 4.93219e-93 2.69426e-92 1.45422e-91 7.75453e-91 4.08468e-90 2.12511e-89 1.09185e-88 5.53916e-88 2.77435e-87 1.37168e-86 6.69345e-86 3.22323e-85 1.53146e-84 7.17837e-84 3.31879e-83 1.5132e-82 6.80299e-82 3.0152e-81 1.31725e-80 5.6712e-80 2.40579e-79 1.00538e-78 4.13822e-78 1.67732e-77 6.69349e-77 2.62923e-76 1.01638e-75 3.86575e-75 1.44634e-74 5.32184e-74 1.92535e-73 6.84711e-73 2.39304e-72 8.21726e-72 2.77158e-71 9.17989e-71 2.98497e-70 9.52609e-70 2.98291e-69 9.16205e-69 2.75958e-68 8.14824e-68 2.35787e-67 6.68464e-67 1.85609e-66 5.04596e-66 1.34267e-65 3.49567e-65 8.90187e-65 2.21653e-64 5.39455e-64 1.28285e-63 2.97976e-63 6.75803e-63 1.49602e-62 3.23131e-62 6.8076e-62 1.39839e-61 2.79987e-61 5.46226e-61 1.03798e-60 1.92069e-60 3.4597e-60 6.06477e-60 1.03435e-59 1.71591e-59 2.76823e-59 4.34224e-59 6.62164e-59 9.81551e-59 1.41428e-58 1.98075e-58 2.69667e-58 3.56936e-58 4.59429e-58 5.75246e-58 7.00963e-58 8.31771e-58 9.61873e-58 1.0851e-57 1.19564e-57 1.28882e-57 1.36167e-57 1.41332e-57 1.44504e-57 1.45998e-57 1.46259e-57 1.45799e-57 1.45119e-57 1.44656e-57 1.44731e-57 1.45532e-57 1.47111e-57 1.49404e-57 1.52254e-57 1.55456e-57 1.58787e-57 1.62043e-57 1.65059e-57 1.67732e-57 1.70017e-57 1.71926e-57 1.73517e-57 1.74876e-57 1.76107e-57 1.77314e-57 1.78591e-57 1.80017e-57 1.81643e-57 1.83486e-57 1.85521e-57 1.87674e-57 1.89819e-57 1.9179e-57 1.93392e-57 1.94426e-57 1.94717e-57 1.94141e-57 1.92648e-57 1.90271e-57 1.87128e-57 1.83401e-57 1.79317e-57 1.75116e-57 1.71021e-57 1.67209e-57 1.63792e-57 1.60805e-57 1.58206e-57 1.55882e-57 1.53668e-57 1.51372e-57 1.4881e-57 1.45837e-57 1.42381e-57 1.38465e-57 1.34219e-57 1.29873e-57 1.25735e-57 1.22148e-57 1.19443e-57 1.17891e-57 1.17653e-57 1.18759e-57 1.21092e-57 1.24406e-57 1.28355e-57 1.32542e-57 1.36568e-57 1.40085e-57 1.42833e-57 1.44673e-57 1.45587e-57 1.45673e-57 1.45124e-57 1.44189e-57 1.43141e-57 1.42237e-57 1.4169e-57 1.41644e-57 1.42159e-57 1.43206e-57 1.44669e-57 1.46357e-57 1.48013e-57 1.49341e-57 1.50027e-57 1.49772e-57 1.48317e-57 1.45471e-57 1.41129e-57 1.35286e-57 1.28031e-57 1.19535e-57 1.10037e-57 9.98167e-58 8.91749e-58 7.84116e-58 6.78113e-58 5.76304e-58 4.80882e-58 3.93591e-58 3.15677e-58 2.47863e-58 1.90346e-58 1.42846e-58 1.04676e-58 7.48493e-59 5.21972e-59 3.54832e-59 2.35049e-59 1.51684e-59 9.53424e-60 5.83653e-60 3.47961e-60 2.02035e-60 1.14256e-60 6.2942e-61 3.3782e-61 1.76684e-61 9.00698e-62 4.47648e-62 2.16964e-62 1.02578e-62 4.73228e-63 2.13091e-63 9.36866e-64 4.02296e-64 1.68776e-64 6.92009e-65 2.77392e-65 1.08742e-65 4.17022e-66 1.56503e-66 5.74948e-67 2.06828e-67 7.28787e-68 2.51615e-68 8.51431e-69 2.82466e-69 9.18998e-70 2.93304e-70 9.18544e-71 2.82344e-71 8.52063e-72 2.52519e-72 7.35122e-73 2.10269e-73 5.91087e-74 1.6334e-74 4.43806e-75 1.18567e-75 3.10493e-76 7.54933e-77 0 
0 5.46272e-108 3.78233e-107 2.54058e-106 1.68886e-105 1.11144e-104 7.24055e-104 4.66886e-103 2.97964e-102 1.88186e-101 1.17608e-100 7.27234e-100 4.44888e-99 2.69229e-98 1.61155e-97 9.54037e-97 5.58525e-96 3.23315e-95 1.85039e-94 1.04691e-93 5.85472e-93 3.23597e-92 1.76747e-91 9.5387e-91 5.08585e-90 2.67866e-89 1.39345e-88 7.15858e-88 3.6313e-87 1.8186e-86 8.99053e-86 4.38676e-85 2.11226e-84 1.00352e-83 4.70338e-83 2.17436e-82 9.91326e-82 4.45648e-81 1.97506e-80 8.62794e-80 3.71442e-79 1.57562e-78 6.58428e-78 2.71003e-77 1.0984e-76 4.38314e-76 1.72168e-75 6.65533e-75 2.5313e-74 9.47055e-74 3.48471e-73 1.26071e-72 4.4835e-72 1.56699e-71 5.38086e-71 1.81494e-70 6.01154e-70 1.95481e-69 6.23874e-69 1.95363e-68 6.00093e-68 1.80757e-67 5.33755e-67 1.54464e-66 4.37943e-66 1.21611e-65 3.30638e-65 8.79865e-65 2.29096e-64 5.83458e-64 1.45293e-63 3.53647e-63 8.41077e-63 1.95384e-62 4.43174e-62 9.81158e-62 2.11948e-61 4.46573e-61 9.17436e-61 1.8371e-60 3.58437e-60 6.81204e-60 1.26063e-59 2.27098e-59 3.98134e-59 6.7908e-59 1.12664e-58 1.81771e-58 2.85146e-58 4.34856e-58 6.4464e-58 9.28878e-58 1.30098e-57 1.77126e-57 2.34454e-57 3.01782e-57 3.77863e-57 4.60447e-57 5.46375e-57 6.31839e-57 7.12788e-57 7.85409e-57 8.46624e-57 8.9449e-57 9.28438e-57 9.49304e-57 9.59146e-57 9.60893e-57 9.57892e-57 9.53446e-57 9.50407e-57 9.5089e-57 9.56125e-57 9.66457e-57 9.81456e-57 1.00011e-56 1.02107e-56 1.04288e-56 1.06419e-56 1.08394e-56 1.10144e-56 1.11641e-56 1.12891e-56 1.13934e-56 1.14825e-56 1.15632e-56 1.16422e-56 1.17259e-56 1.18193e-56 1.19257e-56 1.20464e-56 1.21795e-56 1.23203e-56 1.24606e-56 1.25895e-56 1.26942e-56 1.27618e-56 1.27807e-56 1.2743e-56 1.26452e-56 1.24896e-56 1.22839e-56 1.204e-56 1.17728e-56 1.14979e-56 1.123e-56 1.09806e-56 1.0757e-56 1.05616e-56 1.03916e-56 1.02395e-56 1.00946e-56 9.94429e-57 9.77648e-57 9.5817e-57 9.3552e-57 9.09853e-57 8.82021e-57 8.53535e-57 8.26407e-57 8.02888e-57 7.85156e-57 7.74974e-57 7.73412e-57 7.80653e-57 7.9594e-57 8.17658e-57 8.43543e-57 8.70988e-57 8.97381e-57 9.20437e-57 9.38465e-57 9.50537e-57 9.56541e-57 9.57125e-57 9.53539e-57 9.47425e-57 9.40564e-57 9.34645e-57 9.31061e-57 9.30751e-57 9.34113e-57 9.40958e-57 9.50533e-57 9.61575e-57 9.72412e-57 9.811e-57 9.85591e-57 9.83915e-57 9.74377e-57 9.55722e-57 9.27267e-57 8.88966e-57 8.41395e-57 7.85682e-57 7.2338e-57 6.56321e-57 5.86471e-57 5.15797e-57 4.46166e-57 3.79264e-57 3.16535e-57 2.59129e-57 2.07872e-57 1.63244e-57 1.25382e-57 9.41059e-58 6.89674e-58 4.93203e-58 3.43966e-58 2.33838e-58 1.54905e-58 9.99662e-59 6.28349e-59 3.84648e-59 2.29313e-59 1.3314e-59 7.52906e-60 4.14742e-60 2.22584e-60 1.16407e-60 5.9337e-61 2.94882e-61 1.4291e-61 6.75605e-62 3.11652e-62 1.40322e-62 6.16878e-63 2.64868e-63 1.1111e-63 4.55533e-64 1.82585e-64 7.15701e-65 2.74448e-65 1.02989e-65 3.78325e-66 1.36087e-66 4.79491e-67 1.65536e-67 5.60118e-68 1.85812e-68 6.04509e-69 1.92925e-69 6.04163e-70 1.85703e-70 5.60404e-71 1.66079e-71 4.83473e-72 1.38288e-72 3.88739e-73 1.07423e-73 2.91878e-74 7.79788e-75 2.04206e-75 4.96516e-76 0 
0 3.55864e-107 2.46355e-106 1.65448e-105 1.09964e-104 7.23549e-104 4.71283e-103 3.03844e-102 1.9388e-101 1.2243e-100 7.65019e-100 4.72979e-99 2.89303e-98 1.75049e-97 1.04765e-96 6.20124e-96 3.62991e-95 2.10097e-94 1.20226e-93 6.80123e-93 3.80303e-92 2.10172e-91 1.1478e-90 6.19377e-90 3.30202e-89 1.73894e-88 9.0451e-88 4.64626e-87 2.35666e-86 1.18013e-85 5.83361e-85 2.84615e-84 1.37033e-83 6.50981e-83 3.05085e-82 1.4103e-81 6.42935e-81 2.89012e-80 1.28079e-79 5.59478e-79 2.4085e-78 1.02162e-77 4.26902e-77 1.75703e-76 7.12124e-76 2.84164e-75 1.11616e-74 4.3146e-74 1.64101e-73 6.13963e-73 2.2591e-72 8.17314e-72 2.90668e-71 1.01591e-70 3.48861e-70 1.17673e-69 3.89779e-69 1.26752e-68 4.04548e-68 1.26689e-67 3.89172e-67 1.17232e-66 3.46199e-66 1.00195e-65 2.84099e-65 7.88975e-65 2.14528e-64 5.70937e-64 1.48673e-63 3.78679e-63 9.43087e-63 2.29576e-62 5.46061e-62 1.26866e-61 2.87794e-61 6.37233e-61 1.37671e-60 2.90106e-60 5.96063e-60 1.19371e-59 2.32933e-59 4.42736e-59 8.19414e-59 1.4763e-58 2.58842e-58 4.41538e-58 7.32606e-58 1.18208e-57 1.85448e-57 2.82833e-57 4.19302e-57 6.04214e-57 8.46294e-57 1.15226e-56 1.52523e-56 1.96326e-56 2.45825e-56 2.99554e-56 3.55458e-56 4.1106e-56 4.63725e-56 5.10973e-56 5.50803e-56 5.81951e-56 6.04048e-56 6.17638e-56 6.24059e-56 6.25213e-56 6.23276e-56 6.20393e-56 6.18418e-56 6.18724e-56 6.22112e-56 6.28804e-56 6.38524e-56 6.50616e-56 6.64201e-56 6.78338e-56 6.92155e-56 7.04962e-56 7.16311e-56 7.26016e-56 7.34129e-56 7.40892e-56 7.46676e-56 7.51913e-56 7.57045e-56 7.62474e-56 7.6853e-56 7.7543e-56 7.83247e-56 7.91873e-56 8.00992e-56 8.1008e-56 8.18427e-56 8.25209e-56 8.29582e-56 8.30804e-56 8.28352e-56 8.22012e-56 8.11928e-56 7.98592e-56 7.82785e-56 7.65468e-56 7.47658e-56 7.30298e-56 7.14139e-56 6.99656e-56 6.86999e-56 6.75984e-56 6.66131e-56 6.56738e-56 6.46992e-56 6.36107e-56 6.23469e-56 6.0877e-56 5.9211e-56 5.74044e-56 5.55552e-56 5.3794e-56 5.22671e-56 5.11157e-56 5.04544e-56 5.03526e-56 5.08223e-56 5.18143e-56 5.32237e-56 5.49039e-56 5.66855e-56 5.8399e-56 5.98961e-56 6.1067e-56 6.18515e-56 6.22422e-56 6.2281e-56 6.20493e-56 6.16531e-56 6.12084e-56 6.08245e-56 6.05917e-56 6.05712e-56 6.07887e-56 6.1232e-56 6.18524e-56 6.25679e-56 6.32702e-56 6.38333e-56 6.41242e-56 6.40151e-56 6.33959e-56 6.21852e-56 6.03383e-56 5.7852e-56 5.47633e-56 5.11451e-56 4.70979e-56 4.27403e-56 3.81997e-56 3.36038e-56 2.9074e-56 2.472e-56 2.06358e-56 1.68969e-56 1.35572e-56 1.06485e-56 8.17998e-57 6.14032e-57 4.50056e-57 3.21876e-57 2.24496e-57 1.52626e-57 1.0111e-57 6.52512e-58 4.10143e-58 2.51068e-58 1.49673e-58 8.68971e-59 4.91376e-59 2.7066e-59 1.45248e-59 7.59555e-60 3.87143e-60 1.92378e-60 9.32245e-61 4.40676e-61 2.03261e-61 9.151e-62 4.02253e-62 1.72698e-62 7.24387e-63 2.96958e-63 1.19014e-63 4.66473e-64 1.78862e-64 6.71141e-65 2.4652e-65 8.86685e-66 3.12394e-66 1.07841e-66 3.64875e-67 1.21036e-67 3.93748e-68 1.25656e-68 3.93486e-69 1.20942e-69 3.6496e-70 1.08155e-70 3.14844e-71 9.00531e-72 2.53143e-72 6.99525e-73 1.90067e-73 5.07789e-74 1.32978e-74 3.23331e-75 0 
0 2.29456e-106 1.58821e-105 1.06643e-104 7.08676e-104 4.66224e-103 3.03626e-102 1.95721e-101 1.24868e-100 7.88386e-100 4.92557e-99 3.04481e-98 1.86212e-97 1.12655e-96 6.74136e-96 3.98977e-95 2.3351e-94 1.35136e-93 7.73206e-93 4.37348e-92 2.44521e-91 1.35116e-90 7.3782e-90 3.98096e-89 2.1221e-88 1.11744e-87 5.81175e-87 2.98507e-86 1.51393e-85 7.5805e-85 3.74687e-84 1.8279e-83 8.80003e-83 4.18018e-82 1.95892e-81 9.0548e-81 4.1277e-80 1.85537e-79 8.22192e-79 3.59133e-78 1.54597e-77 6.55733e-77 2.74001e-76 1.12769e-75 4.57044e-75 1.82375e-74 7.16339e-74 2.76903e-73 1.05317e-72 3.94034e-72 1.44988e-71 5.24556e-71 1.86557e-70 6.5205e-70 2.2392e-69 7.5533e-69 2.50205e-68 8.13685e-68 2.59715e-67 8.13382e-67 2.49877e-66 7.52773e-66 2.2232e-65 6.43479e-65 1.82473e-64 5.06797e-64 1.37816e-63 3.66817e-63 9.55305e-63 2.43349e-62 6.06124e-62 1.47567e-61 3.51041e-61 8.15672e-61 1.85058e-60 4.09809e-60 8.85483e-60 1.86617e-59 3.83481e-59 7.68081e-59 1.49897e-58 2.84945e-58 5.27437e-58 9.50368e-58 1.66648e-57 2.843e-57 4.7176e-57 7.61267e-57 1.19439e-56 1.82174e-56 2.70091e-56 3.89222e-56 5.4519e-56 7.4232e-56 9.82628e-56 1.26486e-55 1.58378e-55 1.92996e-55 2.29015e-55 2.64839e-55 2.9877e-55 3.29212e-55 3.54876e-55 3.74948e-55 3.89191e-55 3.97955e-55 4.02101e-55 4.02855e-55 4.01616e-55 3.99765e-55 3.98493e-55 3.98684e-55 4.00854e-55 4.05146e-55 4.11383e-55 4.19143e-55 4.27863e-55 4.36938e-55 4.45808e-55 4.54031e-55 4.61319e-55 4.67551e-55 4.72763e-55 4.77108e-55 4.80825e-55 4.84191e-55 4.87489e-55 4.90977e-55 4.94866e-55 4.99295e-55 5.04312e-55 5.09845e-55 5.15695e-55 5.21523e-55 5.26876e-55 5.31224e-55 5.34027e-55 5.34808e-55 5.33231e-55 5.2916e-55 5.22687e-55 5.14129e-55 5.03984e-55 4.92872e-55 4.81444e-55 4.70305e-55 4.59938e-55 4.50648e-55 4.42529e-55 4.35463e-55 4.29142e-55 4.23114e-55 4.16857e-55 4.09866e-55 4.01746e-55 3.923e-55 3.81592e-55 3.6998e-55 3.58093e-55 3.46771e-55 3.36954e-55 3.29551e-55 3.25298e-55 3.24641e-55 3.27658e-55 3.34032e-55 3.43091e-55 3.5389e-55 3.65342e-55 3.76358e-55 3.85984e-55 3.93515e-55 3.98563e-55 4.0108e-55 4.01336e-55 3.99852e-55 3.97311e-55 3.94455e-55 3.91989e-55 3.90493e-55 3.90358e-55 3.91751e-55 3.94595e-55 3.98575e-55 4.03166e-55 4.07674e-55 4.11288e-55 4.13154e-55 4.12451e-55 4.08471e-55 4.0069e-55 3.8882e-55 3.72838e-55 3.52979e-55 3.29711e-55 3.03676e-55 2.75635e-55 2.46406e-55 2.1681e-55 1.87627e-55 1.59565e-55 1.33232e-55 1.09115e-55 8.75653e-56 6.87901e-56 5.28518e-56 3.96787e-56 2.90859e-56 2.08038e-56 1.45109e-56 9.86589e-57 6.53603e-57 4.21806e-57 2.65129e-57 1.62294e-57 9.67477e-58 5.61671e-58 3.17588e-58 1.74922e-58 9.38637e-59 4.90806e-59 2.50139e-59 1.24287e-59 6.02221e-60 2.84643e-60 1.31277e-60 5.9096e-61 2.59742e-61 1.11502e-61 4.67652e-62 1.91691e-62 7.68177e-63 3.01055e-63 1.15424e-63 4.33063e-64 1.59056e-64 5.72046e-65 2.01525e-65 6.95627e-66 2.35346e-66 7.80633e-67 2.53936e-67 8.10336e-68 2.5374e-68 7.79863e-69 2.35325e-69 6.97355e-70 2.02996e-70 5.80606e-71 1.63208e-71 4.50995e-72 1.22538e-72 3.27376e-73 8.5732e-74 2.08456e-74 0 
0 1.46425e-105 1.01333e-104 6.80308e-104 4.52011e-103 2.97321e-102 1.93597e-101 1.24776e-100 7.95933e-100 5.02455e-99 3.1387e-98 1.93995e-97 1.18624e-96 7.17556e-96 4.2933e-95 2.54058e-94 1.48673e-93 8.60281e-93 4.92163e-92 2.78348e-91 1.55605e-90 8.59735e-90 4.69416e-89 2.53249e-88 1.34982e-87 7.10709e-87 3.69599e-86 1.89818e-85 9.62605e-85 4.81951e-84 2.38198e-83 1.16195e-82 5.59353e-82 2.65685e-81 1.24497e-80 5.75433e-80 2.62301e-79 1.17896e-78 5.22422e-78 2.28184e-77 9.82233e-77 4.16608e-76 1.74077e-75 7.16425e-75 2.90356e-74 1.1586e-73 4.55077e-73 1.75912e-72 6.69065e-72 2.50327e-71 9.21117e-71 3.33262e-70 1.18527e-69 4.14289e-69 1.42277e-68 4.79954e-68 1.58995e-67 5.17093e-67 1.65059e-66 5.16973e-66 1.5883e-65 4.78529e-65 1.41339e-64 4.09128e-64 1.16029e-63 3.22292e-63 8.7652e-63 2.33326e-62 6.07726e-62 1.54828e-61 3.85689e-61 9.39121e-61 2.23434e-60 5.19238e-60 1.1782e-59 2.60947e-59 5.63913e-59 1.18862e-58 2.44285e-58 4.8935e-58 9.55135e-58 1.81589e-57 3.36167e-57 6.058e-57 1.0624e-56 1.81265e-56 3.00817e-56 4.85467e-56 7.6174e-56 1.16193e-55 1.7228e-55 2.48283e-55 3.47791e-55 4.73564e-55 6.26887e-55 8.06959e-55 1.01044e-54 1.23131e-54 1.46111e-54 1.68967e-54 1.90615e-54 2.10037e-54 2.26411e-54 2.39219e-54 2.48309e-54 2.53905e-54 2.56556e-54 2.57042e-54 2.56257e-54 2.55079e-54 2.54267e-54 2.54385e-54 2.55761e-54 2.58487e-54 2.62449e-54 2.6738e-54 2.72922e-54 2.7869e-54 2.84328e-54 2.89556e-54 2.94189e-54 2.98152e-54 3.01467e-54 3.04231e-54 3.06596e-54 3.08738e-54 3.10837e-54 3.13056e-54 3.15528e-54 3.18343e-54 3.2153e-54 3.25045e-54 3.2876e-54 3.32461e-54 3.3586e-54 3.38621e-54 3.40399e-54 3.40893e-54 3.3989e-54 3.37302e-54 3.33188e-54 3.27749e-54 3.21303e-54 3.14242e-54 3.06982e-54 2.99906e-54 2.9332e-54 2.87419e-54 2.82263e-54 2.77775e-54 2.7376e-54 2.6993e-54 2.65953e-54 2.61507e-54 2.56342e-54 2.50331e-54 2.43517e-54 2.36126e-54 2.2856e-54 2.21353e-54 2.15104e-54 2.10391e-54 2.07682e-54 2.07263e-54 2.09181e-54 2.13237e-54 2.19002e-54 2.25875e-54 2.33164e-54 2.40177e-54 2.46305e-54 2.51101e-54 2.54317e-54 2.55923e-54 2.56089e-54 2.55148e-54 2.53534e-54 2.51719e-54 2.5015e-54 2.49197e-54 2.4911e-54 2.49993e-54 2.51799e-54 2.54328e-54 2.57245e-54 2.6011e-54 2.62407e-54 2.63592e-54 2.63144e-54 2.60612e-54 2.5566e-54 2.48107e-54 2.37934e-54 2.25292e-54 2.10475e-54 1.93891e-54 1.76024e-54 1.57393e-54 1.3852e-54 1.19904e-54 1.01994e-54 8.51816e-55 6.97774e-55 5.60079e-55 4.4007e-55 3.38162e-55 2.53911e-55 1.86147e-55 1.33155e-55 9.28834e-56 6.3154e-56 4.18398e-56 2.70018e-56 1.6972e-56 1.03889e-56 6.19281e-57 3.59506e-57 2.03264e-57 1.11946e-57 6.00652e-58 3.14047e-58 1.60039e-58 7.951e-59 3.85218e-59 1.82055e-59 8.39542e-60 3.77886e-60 1.66071e-60 7.12829e-61 2.98933e-61 1.22519e-61 4.90926e-62 1.92377e-62 7.37492e-63 2.76674e-63 1.01607e-63 3.65397e-64 1.28713e-64 4.44258e-65 1.5029e-65 4.98468e-66 1.62138e-66 5.17365e-67 1.61993e-67 4.97853e-68 1.50221e-68 4.4514e-69 1.29573e-69 3.70591e-70 1.0417e-70 2.87849e-71 7.8209e-72 2.08943e-72 5.4717e-73 1.33043e-73 0 
0 9.24676e-105 6.39817e-104 4.29475e-103 2.85306e-102 1.87637e-101 1.22158e-100 7.87201e-100 5.02072e-99 3.16899e-98 1.97929e-97 1.22317e-96 7.47839e-96 4.52303e-95 2.70586e-94 1.60099e-93 9.36767e-93 5.41982e-92 3.10027e-91 1.75318e-90 9.79965e-90 5.4138e-89 2.95561e-88 1.59437e-87 8.4972e-87 4.47349e-86 2.32619e-85 1.19457e-84 6.05737e-84 3.03251e-83 1.49866e-82 7.31004e-82 3.51875e-81 1.67124e-80 7.83081e-80 3.61924e-79 1.64968e-78 7.41447e-78 3.28536e-77 1.43493e-76 6.17657e-76 2.61968e-75 1.09459e-74 4.50481e-74 1.82571e-73 7.28505e-73 2.86145e-72 1.10611e-71 4.20707e-71 1.57408e-70 5.79223e-70 2.09571e-69 7.45383e-69 2.60546e-68 8.94825e-68 3.01875e-67 1.00009e-66 3.25278e-66 1.03838e-65 3.25253e-65 9.99369e-65 3.01121e-64 8.89482e-64 2.57503e-63 7.30363e-63 2.02894e-62 5.51868e-62 1.46924e-61 3.82731e-61 9.752e-61 2.42964e-60 5.91681e-60 1.40792e-59 3.27235e-59 7.42638e-59 1.64504e-58 3.5555e-58 7.49547e-58 1.54069e-57 3.08676e-57 6.02575e-57 1.14577e-56 2.1214e-56 3.82344e-56 6.70605e-56 1.14431e-55 1.89924e-55 3.06537e-55 4.81027e-55 7.33802e-55 1.08809e-54 1.56821e-54 2.19684e-54 2.99141e-54 3.96005e-54 5.09769e-54 6.38321e-54 7.77855e-54 9.23031e-54 1.06742e-53 1.20417e-53 1.32686e-53 1.4303e-53 1.51122e-53 1.56865e-53 1.60403e-53 1.6208e-53 1.62391e-53 1.61897e-53 1.61154e-53 1.60641e-53 1.60713e-53 1.61576e-53 1.6329e-53 1.65782e-53 1.68884e-53 1.72371e-53 1.76001e-53 1.7955e-53 1.8284e-53 1.85756e-53 1.88251e-53 1.90338e-53 1.92079e-53 1.93569e-53 1.94919e-53 1.96241e-53 1.97638e-53 1.99194e-53 2.00966e-53 2.0297e-53 2.05181e-53 2.07517e-53 2.09844e-53 2.11981e-53 2.13716e-53 2.14833e-53 2.15143e-53 2.14511e-53 2.12882e-53 2.10293e-53 2.06871e-53 2.02816e-53 1.98374e-53 1.93807e-53 1.89356e-53 1.85215e-53 1.81504e-53 1.78261e-53 1.7544e-53 1.72915e-53 1.70506e-53 1.68003e-53 1.65204e-53 1.61951e-53 1.58164e-53 1.53871e-53 1.49214e-53 1.44446e-53 1.39904e-53 1.35965e-53 1.32994e-53 1.31286e-53 1.31021e-53 1.32229e-53 1.34784e-53 1.38416e-53 1.42747e-53 1.47341e-53 1.51761e-53 1.55624e-53 1.58647e-53 1.60676e-53 1.6169e-53 1.61797e-53 1.61206e-53 1.60191e-53 1.59048e-53 1.5806e-53 1.5746e-53 1.57403e-53 1.57958e-53 1.59094e-53 1.60684e-53 1.6252e-53 1.64323e-53 1.65768e-53 1.66514e-53 1.66231e-53 1.64636e-53 1.61516e-53 1.56757e-53 1.50347e-53 1.42378e-53 1.33036e-53 1.22578e-53 1.11306e-53 9.95472e-54 8.76315e-54 7.58724e-54 6.45554e-54 5.39265e-54 4.41842e-54 3.54723e-54 2.78767e-54 2.14247e-54 1.60891e-54 1.17966e-54 8.4391e-55 5.88718e-55 4.00304e-55 2.6521e-55 1.71157e-55 1.07579e-55 6.58493e-56 3.9251e-56 2.27847e-56 1.28815e-56 7.09377e-57 3.80586e-57 1.98967e-57 1.01383e-57 5.0363e-58 2.43975e-58 1.15289e-58 5.31588e-59 2.39243e-59 1.05128e-59 4.51186e-60 1.89187e-60 7.75295e-61 3.10618e-61 1.21706e-61 4.66516e-62 1.74997e-62 6.42598e-63 2.31065e-63 8.13861e-64 2.8088e-64 9.50116e-65 3.151e-65 1.02485e-65 3.26996e-66 1.02379e-66 3.14622e-67 9.49278e-68 2.8128e-68 8.18723e-69 2.34153e-69 6.58162e-70 1.81862e-70 4.94111e-71 1.32004e-71 3.45683e-72 8.40517e-73 0 