# vtk DataFile Version 3.0
Gray-Scott Simulation Output
ASCII
DATASET STRUCTURED_POINTS
DIMENSIONS 256 256 1
SPACING 1.0 1.0 1.0
ORIGIN 0 0 0
POINT_DATA 65536
SCALARS u double
LOOKUP_TABLE default
0 0 0 0 0 0 0 0 0 0 0 0 0 0 0 0 0 0 0 0 0 0 0 0 0 0 0 0 0 0 0 0 0 0 0 0 0 0 0 0 0 0 0 0 0 0 0 0 0 0 0 0 0 0 0 0 0 0 0 0 0 0 0 0 0 0 0 0 0 0 0 0 0 0 0 0 0 0 0 0 0 0 0 0 0 0 0 0 0 0 0 0 0 0 0 0 0 0 0 0 0 0 0 0 0 0 0 0 0 0 0 0 0 0 0 0 0 0 0 0 0 0 0 0 0 0 0 0 0 0 0 0 0 0 0 0 0 0 0 0 0 0 0 0 0 0 0 0 0 0 0 0 0 0 0 0 0 0 0 0 0 0 0 0 0 0 0 0 0 0 0 0 0 0 0 0 0 0 0 0 0 0 0 0 0 0 0 0 0 0 0 0 0 0 0 0 0 0 0 0 0 0 0 0 0 0 0 0 0 0 0 0 0 0 0 0 0 0 0 0 0 0 0 0 0 0 0 0 0 0 0 0 0 0 0 0 0 0 0 0 0 0 0 0 0 0 0 0 0 0 0 0 0 0 0 0 
0 5.96599e-74 1.94761e-73 5.73082e-73 1.65629e-72 4.74446e-72 1.34832e-71 3.80178e-71 1.06353e-70 2.95165e-70 8.12656e-70 2.21949e-69 6.01291e-69 1.61576e-68 4.30631e-68 1.13828e-67 2.9839e-67 7.75686e-67 1.99955e-66 5.11089e-66 1.29525e-65 3.2545e-65 8.10693e-65 2.00192e-64 4.90041e-64 1.189e-63 2.8594e-63 6.81521e-63 1.60979e-62 3.76808e-62 8.73981e-62 2.00857e-61 4.57346e-61 1.03169e-60 2.30553e-60 5.10362e-60 1.11903e-59 2.43017e-59 5.22666e-59 1.11321e-58 2.34783e-58 4.90295e-58 1.01372e-57 2.075e-57 4.20458e-57 8.43335e-57 1.67424e-56 3.28957e-56 6.39634e-56 1.23073e-55 2.34312e-55 4.41363e-55 8.22488e-55 1.51621e-54 2.76473e-54 4.98621e-54 8.89363e-54 1.56871e-53 2.73604e-53 4.71831e-53 8.04444e-53 1.35586e-52 2.25897e-52 3.72e-52 6.05453e-52 9.73838e-52 1.54784e-51 2.43091e-51 3.77205e-51 5.78257e-51 8.75725e-51 1.31005e-50 1.93576e-50 2.82508e-50 4.07193e-50 5.79606e-50 8.14718e-50 1.13084e-49 1.54988e-49 2.09741e-49 2.80246e-49 3.69708e-49 4.81544e-49 6.19254e-49 7.86246e-49 9.85628e-49 1.21996e-48 1.49098e-48 1.79937e-48 2.14449e-48 2.5242e-48 2.93475e-48 3.37077e-48 3.82536e-48 4.2903e-48 4.75642e-48 5.214e-48 5.65326e-48 6.06495e-48 6.4408e-48 6.77405e-48 7.05977e-48 7.29514e-48 7.47952e-48 7.61441e-48 7.70322e-48 7.75099e-48 7.76395e-48 7.74906e-48 7.71355e-48 7.66449e-48 7.6084e-48 7.55096e-48 7.49684e-48 7.44959e-48 7.41163e-48 7.38434e-48 7.36821e-48 7.36297e-48 7.36781e-48 7.38154e-48 7.40277e-48 7.43e-48 7.46178e-48 7.49673e-48 7.53358e-48 7.57118e-48 7.60846e-48 7.64446e-48 7.67826e-48 7.70897e-48 7.73571e-48 7.75765e-48 7.77396e-48 7.78391e-48 7.78682e-48 7.78219e-48 7.76964e-48 7.74901e-48 7.72031e-48 7.68379e-48 7.63986e-48 7.58911e-48 7.53224e-48 7.47002e-48 7.40327e-48 7.33282e-48 7.25943e-48 7.18385e-48 7.10679e-48 7.02893e-48 6.95095e-48 6.87359e-48 6.79764e-48 6.72398e-48 6.6536e-48 6.58757e-48 6.52701e-48 6.47304e-48 6.42671e-48 6.38892e-48 6.36035e-48 6.34138e-48 6.33205e-48 6.33202e-48 6.34061e-48 6.35681e-48 6.37935e-48 6.4068e-48 6.43767e-48 6.47049e-48 6.50391e-48 6.53682e-48 6.56833e-48 6.59781e-48 6.62491e-48 6.64943e-48 6.67133e-48 6.69058e-48 6.70709e-48 6.7206e-48 6.73061e-48 6.73629e-48 6.73651e-48 6.72973e-48 6.71414e-48 6.68762e-48 6.64786e-48 6.59246e-48 6.51904e-48 6.42535e-48 6.30941e-48 6.16962e-48 6.00488e-48 5.8147e-48 5.59922e-48 5.35936e-48 5.09673e-48 4.81369e-48 4.51328e-48 4.19913e-48 3.87537e-48 3.54642e-48 3.21691e-48 2.89143e-48 2.57439e-48 2.26983e-48 1.9813e-48 1.71173e-48 1.46332e-48 1.23758e-48 1.03526e-48 8.5642e-49 7.0052e-49 5.66483e-49 4.52826e-49 3.57772e-49 2.79364e-49 2.15571e-49 1.64376e-49 1.23848e-49 9.21984e-50 6.7816e-50 4.92838e-50 3.53863e-50 2.5103e-50 1.75945e-50 1.21841e-50 8.33658e-51 5.63597e-51 3.76488e-51 2.48514e-51 1.62101e-51 1.0449e-51 6.65646e-52 4.19094e-52 2.60798e-52 1.60416e-52 9.75372e-53 5.86269e-53 3.48384e-53 2.04683e-53 1.18905e-53 6.83031e-54 3.88003e-54 2.1798e-54 1.2112e-54 6.65668e-55 3.61881e-55 1.94592e-55 1.03462e-55 5.43037e-56 2.79472e-56 1.37096e-56 5.58484e-57 0 
0 1.94456e-73 6.34951e-73 1.86886e-72 5.40285e-72 1.54812e-71 4.40095e-71 1.2413e-70 3.47361e-70 9.64355e-70 2.65597e-69 7.25636e-69 1.96653e-68 5.28621e-68 1.40939e-67 3.72678e-67 9.77305e-67 2.54154e-66 6.55407e-66 1.67589e-65 4.24893e-65 1.06803e-64 2.66156e-64 6.57523e-64 1.61021e-63 3.9086e-63 9.40382e-63 2.24235e-62 5.29898e-62 1.24092e-61 2.87957e-61 6.62092e-61 1.5083e-60 3.4041e-60 7.61094e-60 1.68564e-59 3.69785e-59 8.03459e-59 1.72893e-58 3.68433e-58 7.77457e-58 1.62442e-57 3.36042e-57 6.88222e-57 1.39531e-56 2.80019e-56 5.56216e-56 1.09347e-55 2.12737e-55 4.09559e-55 7.80176e-55 1.47041e-54 2.74167e-54 5.05695e-54 9.22622e-54 1.66488e-53 2.97121e-53 5.24366e-53 9.15067e-53 1.57888e-52 2.69334e-52 4.54192e-52 7.57109e-52 1.24742e-51 2.03126e-51 3.26875e-51 5.19788e-51 8.16707e-51 1.26785e-50 1.94444e-50 2.9459e-50 4.40865e-50 6.5167e-50 9.51384e-50 1.37171e-49 1.95309e-49 2.74608e-49 3.81252e-49 5.22636e-49 7.07391e-49 9.45319e-49 1.24723e-48 1.62463e-48 2.08931e-48 2.65273e-48 3.32528e-48 4.1155e-48 5.02914e-48 6.0683e-48 7.2306e-48 8.50859e-48 9.88934e-48 1.13544e-47 1.28803e-47 1.44389e-47 1.59992e-47 1.75281e-47 1.89926e-47 2.03615e-47 2.16071e-47 2.27068e-47 2.36443e-47 2.44105e-47 2.50037e-47 2.54294e-47 2.56999e-47 2.58324e-47 2.58485e-47 2.5772e-47 2.56275e-47 2.54392e-47 2.5229e-47 2.50163e-47 2.48167e-47 2.4642e-47 2.45002e-47 2.4396e-47 2.43308e-47 2.43034e-47 2.4311e-47 2.43494e-47 2.44138e-47 2.44991e-47 2.46003e-47 2.47126e-47 2.48317e-47 2.49538e-47 2.50752e-47 2.51927e-47 2.53032e-47 2.54037e-47 2.54913e-47 2.55633e-47 2.56168e-47 2.56495e-47 2.56592e-47 2.56442e-47 2.56031e-47 2.55356e-47 2.54416e-47 2.53219e-47 2.51779e-47 2.50116e-47 2.48251e-47 2.46212e-47 2.44024e-47 2.41715e-47 2.39309e-47 2.36832e-47 2.34306e-47 2.31754e-47 2.29198e-47 2.26662e-47 2.24172e-47 2.21756e-47 2.19448e-47 2.17282e-47 2.15296e-47 2.13526e-47 2.12006e-47 2.10767e-47 2.0983e-47 2.09209e-47 2.08904e-47 2.08905e-47 2.09189e-47 2.09723e-47 2.10466e-47 2.11369e-47 2.12385e-47 2.13464e-47 2.14564e-47 2.15646e-47 2.16683e-47 2.17653e-47 2.18547e-47 2.19357e-47 2.20084e-47 2.20726e-47 2.21282e-47 2.21744e-47 2.22096e-47 2.22311e-47 2.22353e-47 2.22173e-47 2.21709e-47 2.20893e-47 2.19648e-47 2.17894e-47 2.15553e-47 2.12548e-47 2.08812e-47 2.0429e-47 1.98945e-47 1.92755e-47 1.85725e-47 1.7788e-47 1.69272e-47 1.59976e-47 1.50091e-47 1.39736e-47 1.29046e-47 1.18169e-47 1.07257e-47 9.64634e-48 8.59366e-48 7.58125e-48 6.62108e-48 5.72307e-48 4.89483e-48 4.14151e-48 3.46583e-48 2.86816e-48 2.34682e-48 1.89833e-48 1.51785e-48 1.19949e-48 9.36791e-49 7.22983e-49 5.51348e-49 4.15444e-49 3.09294e-49 2.27505e-49 1.65333e-49 1.18707e-49 8.42051e-50 5.90135e-50 4.0862e-50 2.79546e-50 1.88958e-50 1.26203e-50 8.32874e-51 5.43148e-51 3.50029e-51 2.22926e-51 1.40317e-51 8.72924e-52 5.3677e-52 3.26266e-52 1.96045e-52 1.16458e-52 6.83974e-53 3.97191e-53 2.28076e-53 1.29512e-53 7.27317e-54 4.03972e-54 2.21932e-54 1.20602e-54 6.48241e-55 3.4452e-55 1.80753e-55 9.29874e-56 4.55994e-56 1.85711e-56 0 
0 5.71098e-73 1.86531e-72 5.49205e-72 1.58832e-71 4.55282e-71 1.29475e-70 3.65328e-70 1.02272e-69 2.84045e-69 7.82619e-69 2.13907e-68 5.79951e-68 1.55964e-67 4.16006e-67 1.10052e-66 2.8873e-66 7.51208e-66 1.93811e-65 4.95818e-65 1.25767e-64 3.16292e-64 7.88607e-64 1.94921e-63 4.77589e-63 1.15991e-62 2.79217e-62 6.6616e-62 1.5751e-61 3.69066e-61 8.56914e-61 1.97142e-60 4.49369e-60 1.01479e-59 2.27026e-59 5.03114e-59 1.10438e-58 2.40108e-58 5.17004e-58 1.10244e-57 2.32783e-57 4.86694e-57 1.00748e-56 2.06471e-56 4.18881e-56 8.41197e-56 1.67204e-55 3.28931e-55 6.40379e-55 1.23369e-54 2.35169e-54 4.4353e-54 8.27556e-54 1.52746e-53 2.78869e-53 5.03565e-53 8.99287e-53 1.58815e-52 2.77331e-52 4.78831e-52 8.17346e-52 1.37922e-51 2.30052e-51 3.7927e-51 6.17965e-51 9.95032e-51 1.58319e-50 2.48894e-50 3.86588e-50 5.932e-50 8.99166e-50 1.34627e-49 1.9909e-49 2.90777e-49 4.19407e-49 5.97382e-49 8.40203e-49 1.16684e-48 1.59996e-48 2.16603e-48 2.89508e-48 3.82022e-48 4.97666e-48 6.4004e-48 8.12637e-48 1.01862e-47 1.26056e-47 1.54017e-47 1.85802e-47 2.21332e-47 2.60368e-47 3.02503e-47 3.47164e-47 3.93617e-47 4.40995e-47 4.88336e-47 5.34623e-47 5.78842e-47 6.20038e-47 6.57367e-47 6.90145e-47 7.17886e-47 7.40328e-47 7.57436e-47 7.694e-47 7.76609e-47 7.79615e-47 7.79092e-47 7.75783e-47 7.70454e-47 7.63848e-47 7.56646e-47 7.49436e-47 7.42697e-47 7.36787e-47 7.31949e-47 7.28314e-47 7.25919e-47 7.24727e-47 7.24642e-47 7.25532e-47 7.27244e-47 7.29618e-47 7.32497e-47 7.35735e-47 7.39198e-47 7.42764e-47 7.46325e-47 7.4978e-47 7.53035e-47 7.56001e-47 7.5859e-47 7.60718e-47 7.62305e-47 7.63276e-47 7.63567e-47 7.63126e-47 7.61917e-47 7.59922e-47 7.57145e-47 7.53608e-47 7.49351e-47 7.44433e-47 7.3892e-47 7.3289e-47 7.26421e-47 7.19592e-47 7.1248e-47 7.05156e-47 6.97689e-47 6.90143e-47 6.82585e-47 6.75084e-47 6.67719e-47 6.60574e-47 6.53745e-47 6.47336e-47 6.41458e-47 6.36218e-47 6.31721e-47 6.28055e-47 6.25285e-47 6.2345e-47 6.22553e-47 6.22564e-47 6.23413e-47 6.25004e-47 6.27212e-47 6.29897e-47 6.32914e-47 6.36118e-47 6.39382e-47 6.42596e-47 6.45674e-47 6.4856e-47 6.51221e-47 6.53641e-47 6.55821e-47 6.57763e-47 6.59462e-47 6.60898e-47 6.62026e-47 6.62773e-47 6.63028e-47 6.62647e-47 6.61453e-47 6.59238e-47 6.55774e-47 6.50823e-47 6.44144e-47 6.35506e-47 6.24703e-47 6.11564e-47 5.95964e-47 5.77835e-47 5.57175e-47 5.34052e-47 5.08609e-47 4.81064e-47 4.51704e-47 4.2088e-47 3.88994e-47 3.56485e-47 3.23814e-47 2.91445e-47 2.59826e-47 2.29372e-47 2.00452e-47 1.7337e-47 1.48364e-47 1.25597e-47 1.05156e-47 8.70609e-48 7.1264e-48 5.76654e-48 4.61215e-48 3.64577e-48 2.84794e-48 2.19833e-48 1.67669e-48 1.26352e-48 9.40739e-49 6.91988e-49 5.02879e-49 3.61044e-49 2.56088e-49 1.79455e-49 1.2424e-49 8.49814e-50 5.74315e-50 3.83492e-50 2.53024e-50 1.64961e-50 1.06278e-50 6.76645e-51 4.25761e-51 2.64777e-51 1.62754e-51 9.88891e-52 5.93962e-52 3.52688e-52 2.07051e-52 1.20184e-52 6.89811e-53 3.91526e-53 2.19771e-53 1.22008e-53 6.69961e-54 3.63889e-54 1.95495e-54 1.03848e-54 5.44572e-55 2.80019e-55 1.37259e-55 5.58836e-56 0 
0 1.64726e-72 5.38183e-72 1.58515e-71 4.58605e-71 1.31508e-70 3.74136e-70 1.0561e-69 2.95773e-69 8.2181e-69 2.26528e-68 6.19425e-68 1.68015e-67 4.52042e-67 1.2063e-66 3.19271e-66 8.38038e-66 2.18145e-65 5.63094e-65 1.44127e-64 3.65776e-64 9.20375e-64 2.29599e-63 5.6781e-63 1.392e-62 3.38262e-62 8.1474e-62 1.94495e-61 4.60144e-61 1.07882e-60 2.50637e-60 5.76971e-60 1.31598e-59 2.9737e-59 6.65691e-59 1.4762e-58 3.24253e-58 7.05436e-58 1.51998e-57 3.24333e-57 6.85308e-57 1.43381e-56 2.97012e-56 6.09119e-56 1.23663e-55 2.48518e-55 4.94333e-55 9.73174e-55 1.89599e-54 3.65529e-54 6.97287e-54 1.31604e-53 2.45731e-53 4.53887e-53 8.29267e-53 1.49852e-52 2.67805e-52 4.73285e-52 8.2706e-52 1.42898e-51 2.4409e-51 4.12167e-51 6.87952e-51 1.13492e-50 1.85039e-50 2.98133e-50 4.74648e-50 7.46642e-50 1.16037e-49 1.78151e-49 2.70183e-49 4.04734e-49 5.98816e-49 8.7498e-49 1.26257e-48 1.79904e-48 2.53119e-48 3.51631e-48 4.82288e-48 6.53077e-48 8.73063e-48 1.15223e-47 1.50118e-47 1.93076e-47 2.45143e-47 3.07266e-47 3.8021e-47 4.64473e-47 5.6021e-47 6.67152e-47 7.84553e-47 9.11153e-47 1.04518e-46 1.1844e-46 1.32616e-46 1.46753e-46 1.60543e-46 1.73678e-46 1.85872e-46 1.96871e-46 2.06471e-46 2.14531e-46 2.20975e-46 2.258e-46 2.29069e-46 2.30904e-46 2.31479e-46 2.31001e-46 2.29699e-46 2.27808e-46 2.25552e-46 2.2314e-46 2.20748e-46 2.1852e-46 2.16563e-46 2.14949e-46 2.13714e-46 2.12869e-46 2.124e-46 2.12276e-46 2.12455e-46 2.1289e-46 2.13532e-46 2.14333e-46 2.15246e-46 2.16233e-46 2.17255e-46 2.1828e-46 2.19277e-46 2.20219e-46 2.21078e-46 2.2183e-46 2.22448e-46 2.2291e-46 2.23193e-46 2.23279e-46 2.23152e-46 2.22802e-46 2.22224e-46 2.21418e-46 2.20391e-46 2.19155e-46 2.17726e-46 2.16125e-46 2.14373e-46 2.12494e-46 2.10511e-46 2.08446e-46 2.06319e-46 2.0415e-46 2.01958e-46 1.99763e-46 1.97584e-46 1.95444e-46 1.93368e-46 1.91383e-46 1.8952e-46 1.87811e-46 1.86288e-46 1.8498e-46 1.83915e-46 1.8311e-46 1.82578e-46 1.82319e-46 1.82324e-46 1.82574e-46 1.83039e-46 1.83685e-46 1.84469e-46 1.85349e-46 1.86284e-46 1.87236e-46 1.88173e-46 1.89072e-46 1.89915e-46 1.90694e-46 1.91405e-46 1.92048e-46 1.92625e-46 1.93136e-46 1.93576e-46 1.93932e-46 1.94183e-46 1.94299e-46 1.94237e-46 1.93947e-46 1.93367e-46 1.92431e-46 1.91068e-46 1.89206e-46 1.86778e-46 1.83719e-46 1.79978e-46 1.75515e-46 1.70306e-46 1.64349e-46 1.57658e-46 1.50275e-46 1.42258e-46 1.33692e-46 1.24676e-46 1.15329e-46 1.05779e-46 9.61632e-47 8.66189e-47 7.72802e-47 6.82717e-47 5.97044e-47 5.16713e-47 4.4245e-47 3.74762e-47 3.1393e-47 2.60029e-47 2.12936e-47 1.72367e-47 1.37906e-47 1.0904e-47 8.51979e-48 6.57769e-48 5.01759e-48 3.78155e-48 2.81568e-48 2.07121e-48 1.50516e-48 1.08058e-48 7.66392e-49 5.36989e-49 3.71714e-49 2.54209e-49 1.71762e-49 1.14665e-49 7.56349e-50 4.92968e-50 3.175e-50 2.02078e-50 1.27107e-50 7.90174e-51 4.85518e-51 2.94879e-51 1.77039e-51 1.05078e-51 6.16597e-52 3.57741e-52 2.05232e-52 1.1643e-52 6.5322e-53 3.6246e-53 1.98928e-53 1.07992e-53 5.7987e-54 3.07868e-54 1.61359e-54 8.29293e-55 4.06318e-55 1.65375e-55 0 
0 4.70899e-72 1.53896e-71 4.53449e-71 1.3124e-70 3.7649e-70 1.07154e-69 3.02597e-69 8.47821e-69 2.35671e-68 6.49905e-68 1.77792e-67 4.82472e-67 1.29869e-66 3.4673e-66 9.18133e-66 2.41115e-65 6.27951e-65 1.62175e-64 4.15314e-64 1.05457e-63 2.65498e-63 6.62682e-63 1.63977e-62 4.02222e-62 9.77984e-62 2.35696e-61 5.6299e-61 1.33275e-60 3.1266e-60 7.26841e-60 1.67426e-59 3.82117e-59 8.64031e-59 1.93549e-58 4.29491e-58 9.44032e-58 2.05522e-57 4.43138e-57 9.46228e-57 2.00078e-56 4.18903e-56 8.6838e-56 1.78219e-55 3.62085e-55 7.28195e-55 1.44954e-54 2.85578e-54 5.56796e-54 1.07426e-53 2.05081e-53 3.87356e-53 7.23817e-53 1.33796e-52 2.44634e-52 4.42396e-52 7.91206e-52 1.39931e-51 2.44708e-51 4.23109e-51 7.2325e-51 1.22214e-50 2.0413e-50 3.36987e-50 5.49795e-50 8.86405e-50 1.41212e-49 2.22269e-49 3.45638e-49 5.30964e-49 8.05699e-49 1.20757e-48 1.78753e-48 2.61313e-48 3.77232e-48 5.37733e-48 7.56853e-48 1.05176e-47 1.44299e-47 1.95447e-47 2.61337e-47 3.44956e-47 4.49478e-47 5.78137e-47 7.34055e-47 9.20038e-47 1.13834e-46 1.39041e-46 1.67664e-46 1.99615e-46 2.34662e-46 2.72418e-46 3.12342e-46 3.53752e-46 3.95846e-46 4.37739e-46 4.78501e-46 5.17213e-46 5.53012e-46 5.85147e-46 6.13017e-46 6.36208e-46 6.54513e-46 6.67937e-46 6.76686e-46 6.81149e-46 6.81859e-46 6.79455e-46 6.74635e-46 6.68109e-46 6.6056e-46 6.52611e-46 6.44793e-46 6.37534e-46 6.31151e-46 6.25851e-46 6.2174e-46 6.18842e-46 6.17107e-46 6.1644e-46 6.1671e-46 6.17772e-46 6.19472e-46 6.21665e-46 6.24213e-46 6.26992e-46 6.29892e-46 6.32812e-46 6.35664e-46 6.38364e-46 6.40832e-46 6.42993e-46 6.44774e-46 6.46106e-46 6.46925e-46 6.47176e-46 6.46815e-46 6.45811e-46 6.44148e-46 6.4183e-46 6.38875e-46 6.35318e-46 6.31205e-46 6.26596e-46 6.21554e-46 6.16145e-46 6.10436e-46 6.04491e-46 5.98369e-46 5.92126e-46 5.85818e-46 5.79498e-46 5.73225e-46 5.67063e-46 5.61083e-46 5.55366e-46 5.49999e-46 5.45075e-46 5.40686e-46 5.36919e-46 5.33849e-46 5.31533e-46 5.30002e-46 5.29261e-46 5.29283e-46 5.30011e-46 5.31361e-46 5.3323e-46 5.35499e-46 5.38046e-46 5.4075e-46 5.43502e-46 5.46213e-46 5.48813e-46 5.51255e-46 5.53514e-46 5.55584e-46 5.57467e-46 5.59169e-46 5.60693e-46 5.62027e-46 5.63138e-46 5.63969e-46 5.6443e-46 5.64404e-46 5.63741e-46 5.62268e-46 5.5979e-46 5.561e-46 5.50988e-46 5.44247e-46 5.35691e-46 5.25158e-46 5.12526e-46 4.97716e-46 4.80707e-46 4.61538e-46 4.40312e-46 4.17197e-46 3.92427e-46 3.66292e-46 3.39131e-46 3.1132e-46 2.83258e-46 2.55353e-46 2.28001e-46 2.01573e-46 1.76402e-46 1.52769e-46 1.30893e-46 1.10932e-46 9.29737e-47 7.70465e-47 6.31196e-47 5.11131e-47 4.09075e-47 3.23541e-47 2.52856e-47 1.95254e-47 1.48965e-47 1.12281e-47 8.36075e-48 6.15028e-48 4.46937e-48 3.20847e-48 2.27537e-48 1.59409e-48 1.10329e-48 7.54381e-49 5.09604e-49 3.40119e-49 2.24287e-49 1.46141e-49 9.4093e-50 5.98665e-50 3.76424e-50 2.33918e-50 1.43671e-50 8.72222e-51 5.23435e-51 3.10534e-51 1.82136e-51 1.05622e-51 6.05648e-52 3.43417e-52 1.92572e-52 1.06799e-52 5.85837e-53 3.17863e-53 1.70587e-53 9.05199e-54 4.74176e-54 2.43573e-54 1.19285e-54 4.85341e-55 0 
0 1.33548e-71 4.36587e-71 1.28688e-70 3.72605e-70 1.06933e-69 3.04474e-69 8.60184e-69 2.41113e-68 6.70525e-68 1.84993e-67 5.06311e-67 1.37462e-66 3.70189e-66 9.8883e-66 2.6197e-65 6.88322e-65 1.79356e-64 4.63451e-64 1.18749e-63 3.01693e-63 7.59961e-63 1.89793e-62 4.699e-62 1.1533e-61 2.80586e-61 6.76625e-61 1.61719e-60 3.83073e-60 8.99244e-60 2.09182e-59 4.82159e-59 1.10116e-58 2.49157e-58 5.58508e-58 1.2402e-57 2.72788e-57 5.94295e-57 1.28231e-56 2.74007e-56 5.79802e-56 1.21483e-55 2.52018e-55 5.17606e-55 1.05241e-54 2.11812e-54 4.21954e-54 8.31942e-54 1.6233e-53 3.13434e-53 5.98825e-53 1.13194e-52 2.11679e-52 3.91589e-52 7.16539e-52 1.29679e-51 2.32104e-51 4.10808e-51 7.18954e-51 1.24403e-50 2.12809e-50 3.59864e-50 6.01503e-50 9.93691e-50 1.62233e-49 2.61737e-49 4.17242e-49 6.57166e-49 1.02255e-48 1.57177e-48 2.3864e-48 3.57865e-48 5.30009e-48 7.7518e-48 1.11956e-47 1.59657e-47 2.24801e-47 3.12503e-47 4.28877e-47 5.81049e-47 7.77104e-47 1.02593e-46 1.33695e-46 1.71977e-46 2.18362e-46 2.73677e-46 3.38583e-46 4.13495e-46 4.98511e-46 5.93347e-46 6.97281e-46 8.09135e-46 9.27269e-46 1.04962e-45 1.17378e-45 1.29708e-45 1.41674e-45 1.53003e-45 1.63437e-45 1.72755e-45 1.80781e-45 1.87396e-45 1.92542e-45 1.96227e-45 1.98517e-45 1.99534e-45 1.99442e-45 1.98434e-45 1.96724e-45 1.94524e-45 1.92041e-45 1.89459e-45 1.86938e-45 1.84604e-45 1.82549e-45 1.80834e-45 1.79489e-45 1.78518e-45 1.77904e-45 1.77619e-45 1.7762e-45 1.77865e-45 1.78305e-45 1.78897e-45 1.79599e-45 1.80375e-45 1.8119e-45 1.82015e-45 1.82823e-45 1.8359e-45 1.84293e-45 1.8491e-45 1.85419e-45 1.858e-45 1.86035e-45 1.86108e-45 1.86006e-45 1.8572e-45 1.85246e-45 1.84585e-45 1.83741e-45 1.82725e-45 1.81551e-45 1.80235e-45 1.78795e-45 1.7725e-45 1.7562e-45 1.73923e-45 1.72175e-45 1.70392e-45 1.68591e-45 1.66786e-45 1.64995e-45 1.63234e-45 1.61526e-45 1.59892e-45 1.58359e-45 1.56951e-45 1.55697e-45 1.5462e-45 1.53743e-45 1.53081e-45 1.52645e-45 1.52434e-45 1.52442e-45 1.52653e-45 1.53041e-45 1.53578e-45 1.5423e-45 1.54961e-45 1.55737e-45 1.56526e-45 1.57304e-45 1.5805e-45 1.58752e-45 1.59403e-45 1.60001e-45 1.60548e-45 1.61046e-45 1.61498e-45 1.61899e-45 1.62243e-45 1.62512e-45 1.62683e-45 1.62722e-45 1.62585e-45 1.62225e-45 1.61584e-45 1.60602e-45 1.59217e-45 1.5737e-45 1.55003e-45 1.52069e-45 1.48529e-45 1.44358e-45 1.39547e-45 1.34103e-45 1.28053e-45 1.21444e-45 1.1434e-45 1.06824e-45 9.89933e-46 9.09568e-46 8.28304e-46 7.47331e-46 6.67818e-46 5.90863e-46 5.17455e-46 4.48433e-46 3.84462e-46 3.26019e-46 2.73387e-46 2.26663e-46 1.85771e-46 1.50492e-46 1.20483e-46 9.53185e-47 7.45115e-47 5.75484e-47 4.39117e-47 3.31013e-47 2.46497e-47 1.81329e-47 1.31768e-47 9.45885e-48 6.70736e-48 4.69847e-48 3.25134e-48 2.2227e-48 1.50115e-48 1.00165e-48 6.60337e-49 4.30132e-49 2.76849e-49 1.76083e-49 1.10675e-49 6.87485e-50 4.22076e-50 2.5613e-50 1.53639e-50 9.11061e-51 5.34106e-51 3.09581e-51 1.77427e-51 1.00554e-51 5.63565e-52 3.12383e-52 1.71262e-52 9.28724e-53 4.98141e-53 2.64187e-53 1.38314e-53 7.10112e-54 3.47601e-54 1.41381e-54 0 
0 3.75769e-71 1.22883e-70 3.62347e-70 1.04957e-69 3.01342e-69 8.58386e-69 2.42612e-68 6.80353e-68 1.89289e-67 5.22477e-67 1.43065e-66 3.88604e-66 1.04704e-65 2.79819e-65 7.417e-65 1.94981e-64 5.08332e-64 1.31422e-63 3.36922e-63 8.56464e-63 2.15864e-62 5.39411e-62 1.33629e-61 3.28169e-61 7.98886e-61 1.92768e-60 4.61021e-60 1.09274e-59 2.56681e-59 5.97483e-59 1.3781e-58 3.14945e-58 7.13109e-58 1.59961e-57 3.55452e-57 7.82394e-57 1.70575e-56 3.68318e-56 7.87615e-56 1.66785e-55 3.49718e-55 7.2605e-55 1.49234e-54 3.03661e-54 6.11638e-54 1.21941e-53 2.40614e-53 4.69862e-53 9.07954e-53 1.73606e-52 3.28424e-52 6.14664e-52 1.13799e-51 2.08398e-51 3.77458e-51 6.76121e-51 1.19763e-50 2.09761e-50 3.63237e-50 6.21842e-50 1.05234e-49 1.76027e-49 2.91011e-49 4.75452e-49 7.676e-49 1.22449e-48 1.92987e-48 3.00481e-48 4.62152e-48 7.02097e-48 1.05346e-47 1.56104e-47 2.28429e-47 3.30065e-47 4.70902e-47 6.63306e-47 9.22415e-47 1.26632e-46 1.7161e-46 2.29567e-46 3.03129e-46 3.95079e-46 5.08245e-46 6.45345e-46 8.08802e-46 1.00053e-45 1.22172e-45 1.4726e-45 1.75226e-45 2.05849e-45 2.3877e-45 2.73497e-45 3.09409e-45 3.45786e-45 3.81833e-45 4.16724e-45 4.49645e-45 4.79841e-45 5.06659e-45 5.29589e-45 5.4829e-45 5.62607e-45 5.72575e-45 5.78411e-45 5.80489e-45 5.7931e-45 5.75464e-45 5.69586e-45 5.62319e-45 5.54274e-45 5.46004e-45 5.37975e-45 5.30559e-45 5.24028e-45 5.18552e-45 5.14216e-45 5.11025e-45 5.08928e-45 5.07829e-45 5.07603e-45 5.08116e-45 5.09226e-45 5.10799e-45 5.12712e-45 5.14853e-45 5.17122e-45 5.19432e-45 5.21705e-45 5.23868e-45 5.25853e-45 5.27597e-45 5.29039e-45 5.30121e-45 5.30789e-45 5.30999e-45 5.30714e-45 5.29907e-45 5.28567e-45 5.26695e-45 5.24306e-45 5.21429e-45 5.18103e-45 5.14374e-45 5.10295e-45 5.0592e-45 5.01302e-45 4.96493e-45 4.91542e-45 4.86493e-45 4.8139e-45 4.76278e-45 4.71202e-45 4.66214e-45 4.61372e-45 4.5674e-45 4.52392e-45 4.484e-45 4.44843e-45 4.41789e-45 4.39303e-45 4.37428e-45 4.36194e-45 4.35601e-45 4.3563e-45 4.36233e-45 4.37343e-45 4.38875e-45 4.40731e-45 4.42812e-45 4.4502e-45 4.47268e-45 4.49482e-45 4.51607e-45 4.53609e-45 4.55469e-45 4.57184e-45 4.58761e-45 4.60211e-45 4.61538e-45 4.62739e-45 4.63791e-45 4.64651e-45 4.65252e-45 4.655e-45 4.65275e-45 4.64436e-45 4.6282e-45 4.60256e-45 4.56564e-45 4.51567e-45 4.451e-45 4.37016e-45 4.27197e-45 4.15563e-45 4.02076e-45 3.86752e-45 3.69656e-45 3.50915e-45 3.30708e-45 3.09266e-45 2.86867e-45 2.63822e-45 2.40467e-45 2.17147e-45 1.94204e-45 1.7196e-45 1.50707e-45 1.30695e-45 1.12123e-45 9.51353e-46 7.982e-46 6.62104e-46 5.42893e-46 4.39963e-46 3.52352e-46 2.78837e-46 2.18022e-46 1.6842e-46 1.28529e-46 9.6897e-47 7.21608e-47 5.30843e-47 3.85743e-47 2.76884e-47 1.96322e-47 1.37504e-47 9.51367e-48 6.50249e-48 4.39061e-48 2.92888e-48 1.93031e-48 1.25698e-48 8.08767e-49 5.1421e-49 3.23076e-49 2.00606e-49 1.23109e-49 7.46735e-50 4.47723e-50 2.65368e-50 1.55495e-50 9.00835e-51 5.16023e-51 2.92294e-51 1.63732e-51 9.07068e-52 4.97019e-52 2.69374e-52 1.44403e-52 7.654e-53 4.00499e-53 2.05506e-53 1.00547e-53 4.08818e-54 0 
0 1.04897e-70 3.43142e-70 1.01223e-69 2.93323e-69 8.42515e-69 2.40099e-68 6.78912e-68 1.90472e-67 5.30182e-67 1.4641e-66 4.01095e-66 1.09002e-65 2.93836e-65 7.85672e-65 2.08362e-64 5.48041e-64 1.42956e-63 3.69795e-63 9.48564e-63 2.41264e-62 6.08439e-62 1.52129e-61 3.77098e-61 9.26652e-61 2.25722e-60 5.45001e-60 1.30426e-59 3.09344e-59 7.27123e-59 1.69368e-58 3.90917e-58 8.94002e-58 2.02565e-57 4.54708e-57 1.01114e-56 2.22728e-56 4.85947e-56 1.05008e-55 2.2472e-55 4.7623e-55 9.99345e-55 2.07636e-54 4.27118e-54 8.69789e-54 1.75335e-53 3.49843e-53 6.90871e-53 1.35021e-52 2.61126e-52 4.99697e-52 9.46095e-52 1.77213e-51 3.28361e-51 6.01817e-51 1.09093e-50 1.95572e-50 3.46702e-50 6.07725e-50 1.05322e-49 1.80448e-49 3.05608e-49 5.11587e-49 8.46401e-49 1.38387e-48 2.23581e-48 3.56911e-48 5.62896e-48 8.77009e-48 1.34974e-47 2.05176e-47 3.08034e-47 4.56704e-47 6.6865e-47 9.66628e-47 1.3797e-46 1.94424e-46 2.70474e-46 3.71438e-46 5.03515e-46 6.73727e-46 8.89787e-46 1.15986e-45 1.49223e-45 1.89483e-45 2.37471e-45 2.9374e-45 3.58626e-45 4.3218e-45 5.14112e-45 6.0375e-45 7.00016e-45 8.0143e-45 9.06146e-45 1.01202e-44 1.1167e-44 1.21774e-44 1.31274e-44 1.3995e-44 1.47611e-44 1.54109e-44 1.59349e-44 1.63288e-44 1.65942e-44 1.67379e-44 1.67715e-44 1.67102e-44 1.65716e-44 1.63747e-44 1.61388e-44 1.58818e-44 1.56202e-44 1.53675e-44 1.51346e-44 1.49295e-44 1.47568e-44 1.4619e-44 1.4516e-44 1.44462e-44 1.44065e-44 1.43932e-44 1.44022e-44 1.44292e-44 1.44703e-44 1.45218e-44 1.45802e-44 1.46428e-44 1.47069e-44 1.47702e-44 1.48307e-44 1.48863e-44 1.49353e-44 1.49758e-44 1.50062e-44 1.50251e-44 1.50311e-44 1.50232e-44 1.50006e-44 1.4963e-44 1.49104e-44 1.48433e-44 1.47625e-44 1.4669e-44 1.45642e-44 1.44496e-44 1.43266e-44 1.41969e-44 1.40618e-44 1.39226e-44 1.37808e-44 1.36374e-44 1.34937e-44 1.3351e-44 1.32108e-44 1.30747e-44 1.29444e-44 1.28221e-44 1.27098e-44 1.26097e-44 1.25239e-44 1.24539e-44 1.24013e-44 1.23666e-44 1.23501e-44 1.2351e-44 1.23682e-44 1.23996e-44 1.2443e-44 1.24954e-44 1.25542e-44 1.26166e-44 1.26801e-44 1.27426e-44 1.28027e-44 1.28593e-44 1.2912e-44 1.29609e-44 1.3006e-44 1.30479e-44 1.30866e-44 1.31222e-44 1.31542e-44 1.31812e-44 1.32017e-44 1.32128e-44 1.32113e-44 1.31931e-44 1.31538e-44 1.30883e-44 1.29916e-44 1.28583e-44 1.26838e-44 1.24635e-44 1.2194e-44 1.18727e-44 1.14983e-44 1.10708e-44 1.05919e-44 1.00649e-44 9.49485e-45 8.88805e-45 8.25236e-45 7.59666e-45 6.93055e-45 6.264e-45 5.60691e-45 4.9687e-45 4.35791e-45 3.7819e-45 3.2466e-45 2.75637e-45 2.31391e-45 1.92033e-45 1.57528e-45 1.27711e-45 1.02314e-45 8.09907e-46 6.33415e-46 4.894e-46 3.73539e-46 2.81635e-46 2.0975e-46 1.54302e-46 1.12122e-46 8.04754e-47 5.70543e-47 3.99553e-47 2.76396e-47 1.88875e-47 1.27502e-47 8.50308e-48 5.60242e-48 3.647e-48 2.34575e-48 1.49086e-48 9.36336e-49 5.81155e-49 3.5649e-49 2.16137e-49 1.2953e-49 7.67358e-50 4.49417e-50 2.60229e-50 1.48988e-50 8.43468e-51 4.72219e-51 2.61463e-51 1.43185e-51 7.75591e-52 4.1553e-52 2.20122e-52 1.15113e-52 5.90349e-53 2.88696e-53 1.1734e-53 0 
0 2.90498e-70 9.50597e-70 2.80526e-69 8.13255e-69 2.33694e-68 6.66273e-68 1.88483e-67 5.29044e-67 1.4733e-66 4.07047e-66 1.11567e-65 3.03346e-65 8.18149e-65 2.18874e-64 5.80768e-64 1.52838e-63 3.98897e-63 1.03244e-62 2.64983e-62 6.74369e-62 1.70168e-61 4.25732e-61 1.05596e-60 2.59645e-60 6.32867e-60 1.52904e-59 3.66158e-59 8.69037e-59 2.04408e-58 4.76454e-58 1.10047e-57 2.5185e-57 5.71059e-57 1.28282e-56 2.85476e-56 6.293e-56 1.37404e-55 2.97144e-55 6.36394e-55 1.34972e-54 2.83457e-54 5.8942e-54 1.21345e-53 2.47311e-53 4.98947e-53 9.9637e-53 1.96927e-52 3.8519e-52 7.45571e-52 1.42795e-51 2.70588e-51 5.07268e-51 9.40722e-51 1.7256e-50 3.13068e-50 5.61712e-50 9.96612e-50 1.74838e-49 3.03252e-49 5.19983e-49 8.81354e-49 1.47655e-48 2.44478e-48 4.00026e-48 6.46773e-48 1.03321e-47 1.63066e-47 2.54235e-47 3.9153e-47 5.95546e-47 8.94644e-47 1.32719e-46 1.94416e-46 2.81198e-46 4.01553e-46 5.66101e-46 7.8784e-46 1.08231e-45 1.4676e-45 1.96422e-45 2.59467e-45 3.38275e-45 4.35254e-45 5.52709e-45 6.92678e-45 8.56747e-45 1.04585e-44 1.2601e-44 1.49857e-44 1.75925e-44 2.0389e-44 2.33312e-44 2.63644e-44 2.94254e-44 3.24447e-44 3.53507e-44 3.80734e-44 4.05482e-44 4.27202e-44 4.4547e-44 4.60013e-44 4.70726e-44 4.77667e-44 4.8105e-44 4.81226e-44 4.78653e-44 4.73858e-44 4.67408e-44 4.59866e-44 4.51766e-44 4.43584e-44 4.35721e-44 4.28491e-44 4.22117e-44 4.16739e-44 4.12416e-44 4.09144e-44 4.06868e-44 4.05498e-44 4.04918e-44 4.05006e-44 4.05635e-44 4.06687e-44 4.08052e-44 4.09632e-44 4.11341e-44 4.13103e-44 4.14852e-44 4.16527e-44 4.18072e-44 4.19434e-44 4.20564e-44 4.21415e-44 4.21943e-44 4.22113e-44 4.21894e-44 4.21267e-44 4.20221e-44 4.18757e-44 4.16888e-44 4.14635e-44 4.12029e-44 4.09108e-44 4.05913e-44 4.02485e-44 3.98868e-44 3.95102e-44 3.91225e-44 3.8727e-44 3.83274e-44 3.79268e-44 3.7529e-44 3.7138e-44 3.67583e-44 3.6395e-44 3.60538e-44 3.57405e-44 3.54612e-44 3.52215e-44 3.50264e-44 3.48796e-44 3.47831e-44 3.47373e-44 3.47405e-44 3.4789e-44 3.48774e-44 3.49989e-44 3.51461e-44 3.53109e-44 3.54856e-44 3.56634e-44 3.58386e-44 3.6007e-44 3.6166e-44 3.63145e-44 3.64525e-44 3.65808e-44 3.67007e-44 3.6813e-44 3.69178e-44 3.70137e-44 3.70979e-44 3.71652e-44 3.72086e-44 3.72188e-44 3.71845e-44 3.7093e-44 3.69302e-44 3.66813e-44 3.63316e-44 3.58667e-44 3.52739e-44 3.45423e-44 3.36639e-44 3.26342e-44 3.14526e-44 3.0123e-44 2.8654e-44 2.70589e-44 2.53556e-44 2.35658e-44 2.17146e-44 1.98294e-44 1.79386e-44 1.60708e-44 1.42532e-44 1.25108e-44 1.0865e-44 9.33337e-45 7.92891e-45 6.65985e-45 5.52984e-45 4.53825e-45 3.6807e-45 2.94976e-45 2.33567e-45 1.82713e-45 1.41197e-45 1.07786e-45 8.12745e-46 6.05329e-46 4.45313e-46 3.23573e-46 2.32227e-46 1.64623e-46 1.15269e-46 7.97247e-47 5.44682e-47 3.67603e-47 2.45087e-47 1.61431e-47 1.05052e-47 6.75456e-48 4.2913e-48 2.69407e-48 1.67142e-48 1.02482e-48 6.21055e-49 3.72016e-49 2.2028e-49 1.28945e-49 7.46249e-50 4.27017e-50 2.41616e-50 1.35194e-50 7.4813e-51 4.09464e-51 2.21665e-51 1.18689e-51 6.28367e-52 3.28414e-52 1.68329e-52 8.22758e-53 3.34286e-53 0 