# vtk DataFile Version 3.0
Gray-Scott Simulation Output
ASCII
DATASET STRUCTURED_POINTS
DIMENSIONS 256 256 1
SPACING 1.0 1.0 1.0
ORIGIN 0 0 0
POINT_DATA 65536
SCALARS u double
LOOKUP_TABLE default
0 0 0 0 0 0 0 0 0 0 0 0 0 0 0 0 0 0 0 0 0 0 0 0 0 0 0 0 0 0 0 0 0 0 0 0 0 0 0 0 0 0 0 0 0 0 0 0 0 0 0 0 0 0 0 0 0 0 0 0 0 0 0 0 0 0 0 0 0 0 0 0 0 0 0 0 0 0 0 0 0 0 0 0 0 0 0 0 0 0 0 0 0 0 0 0 0 0 0 0 0 0 0 0 0 0 0 0 0 0 0 0 0 0 0 0 0 0 0 0 0 0 0 0 0 0 0 0 0 0 0 0 0 0 0 0 0 0 0 0 0 0 0 0 0 0 0 0 0 0 0 0 0 0 0 0 0 0 0 0 0 0 0 0 0 0 0 0 0 0 0 0 0 0 0 0 0 0 0 0 0 0 0 0 0 0 0 0 0 0 0 0 0 0 0 0 0 0 0 0 0 0 0 0 0 0 0 0 0 0 0 0 0 0 0 0 0 0 0 0 0 0 0 0 0 0 0 0 0 0 0 0 0 0 0 0 0 0 0 0 0 0 0 0 0 0 0 0 0 0 0 0 0 0 0 0 
0 1.26735e-74 4.21802e-74 1.27011e-73 3.75918e-73 1.10279e-72 3.20926e-72 9.26521e-72 2.65353e-71 7.5386e-71 2.12437e-70 5.93776e-70 1.64605e-69 4.52551e-69 1.23388e-68 3.33608e-68 8.94401e-68 2.37758e-67 6.26646e-67 1.63745e-66 4.24174e-66 1.08925e-65 2.77263e-65 6.99536e-65 1.74927e-64 4.33512e-64 1.06468e-63 2.59109e-63 6.24831e-63 1.4929e-62 3.53394e-62 8.28739e-62 1.92521e-61 4.43004e-61 1.00967e-60 2.27909e-60 5.09475e-60 1.1278e-59 2.47206e-59 5.36499e-59 1.15274e-58 2.45196e-58 5.16277e-58 1.07598e-57 2.21945e-57 4.53076e-57 9.15267e-57 1.82953e-56 3.61838e-56 7.07999e-56 1.37044e-55 2.624e-55 4.9694e-55 9.30777e-55 1.72406e-54 3.15781e-54 5.71887e-54 1.02397e-53 1.81253e-53 3.17147e-53 5.48502e-53 9.37565e-53 1.58378e-52 2.64373e-52 4.36052e-52 7.10588e-52 1.14399e-51 1.81935e-51 2.85802e-51 4.4344e-51 6.79508e-51 1.02828e-50 1.53658e-50 2.26724e-50 3.30301e-50 4.75082e-50 6.74601e-50 9.45639e-50 1.30853e-49 1.78734e-49 2.40979e-49 3.20695e-49 4.21248e-49 5.46154e-49 6.98917e-49 8.8283e-49 1.10073e-48 1.35475e-48 1.64603e-48 1.97446e-48 2.33851e-48 2.73501e-48 3.15918e-48 3.60464e-48 4.06363e-48 4.52729e-48 4.98609e-48 5.4303e-48 5.85055e-48 6.23837e-48 6.58665e-48 6.89004e-48 7.14526e-48 7.35118e-48 7.50882e-48 7.62117e-48 7.69284e-48 7.72973e-48 7.7385e-48 7.72615e-48 7.69954e-48 7.66503e-48 7.62818e-48 7.59354e-48 7.56458e-48 7.54364e-48 7.53205e-48 7.53027e-48 7.53803e-48 7.55452e-48 7.57861e-48 7.60896e-48 7.6442e-48 7.68297e-48 7.72402e-48 7.7662e-48 7.80849e-48 7.84994e-48 7.88966e-48 7.92678e-48 7.96045e-48 7.98979e-48 8.01393e-48 8.03201e-48 8.04323e-48 8.04684e-48 8.04229e-48 8.02915e-48 8.00723e-48 7.97656e-48 7.9374e-48 7.89025e-48 7.83574e-48 7.77468e-48 7.70794e-48 7.63643e-48 7.56104e-48 7.48261e-48 7.40193e-48 7.31972e-48 7.23667e-48 7.15347e-48 7.07086e-48 6.98964e-48 6.91074e-48 6.83521e-48 6.76422e-48 6.69899e-48 6.6408e-48 6.59083e-48 6.55013e-48 6.51947e-48 6.49932e-48 6.48974e-48 6.49038e-48 6.50048e-48 6.51888e-48 6.54417e-48 6.5747e-48 6.60878e-48 6.64475e-48 6.68109e-48 6.71656e-48 6.75016e-48 6.78125e-48 6.80943e-48 6.83457e-48 6.85666e-48 6.8757e-48 6.89166e-48 6.90426e-48 6.913e-48 6.91697e-48 6.91491e-48 6.90516e-48 6.88571e-48 6.85426e-48 6.80833e-48 6.74535e-48 6.66284e-48 6.55847e-48 6.43029e-48 6.27678e-48 6.09701e-48 5.89071e-48 5.65834e-48 5.40116e-48 5.1212e-48 4.82121e-48 4.50464e-48 4.17553e-48 3.83832e-48 3.49775e-48 3.15863e-48 2.8257e-48 2.50341e-48 2.19575e-48 1.90617e-48 1.63739e-48 1.39139e-48 1.16938e-48 9.71821e-49 7.98474e-49 6.48496e-49 5.20552e-49 4.12928e-49 3.23661e-49 2.50651e-49 1.91769e-49 1.4494e-49 1.08212e-49 7.98029e-50 5.81313e-50 4.18253e-50 2.97236e-50 2.08641e-50 1.44655e-50 9.90629e-51 6.70105e-51 4.47756e-51 2.95544e-51 1.92709e-51 1.24136e-51 7.90018e-52 4.9675e-52 3.08622e-52 1.89465e-52 1.14941e-52 6.89106e-53 4.08317e-53 2.39131e-53 1.38432e-53 7.92181e-54 4.48163e-54 2.5067e-54 1.38629e-54 7.58102e-55 4.09969e-55 2.19255e-55 1.15962e-55 6.06348e-56 3.12997e-56 1.58509e-56 7.66454e-57 3.08964e-57 0 
0 4.21142e-74 1.40196e-73 4.22261e-73 1.25013e-72 3.66841e-72 1.06787e-71 3.0839e-71 8.83489e-71 2.51074e-70 7.07751e-70 1.97885e-69 5.48753e-69 1.5092e-68 4.11625e-68 1.11331e-67 2.98584e-67 7.94013e-67 2.09351e-66 5.47246e-66 1.41816e-65 3.64316e-65 9.27714e-65 2.34157e-64 5.85774e-64 1.4523e-63 3.56828e-63 8.68777e-63 2.09593e-62 5.01001e-62 1.18648e-61 2.78367e-61 6.46961e-61 1.4894e-60 3.39618e-60 7.66975e-60 1.71535e-59 3.79907e-59 8.33144e-59 1.80905e-58 3.88896e-58 8.27637e-58 1.74355e-57 3.63566e-57 7.50332e-57 1.53253e-56 3.09756e-56 6.19506e-56 1.2259e-55 2.39999e-55 4.64808e-55 8.90458e-55 1.68729e-54 3.16205e-54 5.86019e-54 1.07394e-53 1.94599e-53 3.48621e-53 6.17421e-53 1.0809e-52 1.87039e-52 3.19874e-52 5.40621e-52 9.02889e-52 1.48994e-51 2.42916e-51 3.91257e-51 6.2252e-51 9.78346e-51 1.51861e-50 2.32799e-50 3.52425e-50 5.26829e-50 7.77609e-50 1.13322e-49 1.63042e-49 2.31578e-49 3.24699e-49 4.494e-49 6.13953e-49 8.27892e-49 1.10189e-48 1.4475e-48 1.8768e-48 2.40177e-48 3.03368e-48 3.78219e-48 4.65448e-48 5.65431e-48 6.78114e-48 8.02939e-48 9.388e-48 1.08402e-47 1.23638e-47 1.39319e-47 1.55138e-47 1.70765e-47 1.85866e-47 2.00119e-47 2.13234e-47 2.24969e-47 2.35143e-47 2.43647e-47 2.50448e-47 2.55586e-47 2.59167e-47 2.61356e-47 2.62359e-47 2.62409e-47 2.61749e-47 2.60616e-47 2.5923e-47 2.57782e-47 2.56428e-47 2.55286e-47 2.54435e-47 2.5392e-47 2.53754e-47 2.53927e-47 2.54408e-47 2.55159e-47 2.56132e-47 2.57278e-47 2.58551e-47 2.59906e-47 2.61305e-47 2.62711e-47 2.64091e-47 2.65417e-47 2.66657e-47 2.67783e-47 2.68765e-47 2.69573e-47 2.7018e-47 2.70556e-47 2.70679e-47 2.70528e-47 2.70089e-47 2.69356e-47 2.68331e-47 2.67021e-47 2.65443e-47 2.63619e-47 2.61575e-47 2.59342e-47 2.56949e-47 2.54426e-47 2.51802e-47 2.49102e-47 2.46351e-47 2.43572e-47 2.40788e-47 2.38023e-47 2.35305e-47 2.32664e-47 2.30135e-47 2.27757e-47 2.25573e-47 2.23624e-47 2.21951e-47 2.20588e-47 2.19561e-47 2.18888e-47 2.18568e-47 2.18592e-47 2.18933e-47 2.19552e-47 2.20402e-47 2.21428e-47 2.22572e-47 2.2378e-47 2.25e-47 2.2619e-47 2.27318e-47 2.28362e-47 2.29309e-47 2.30156e-47 2.30902e-47 2.31549e-47 2.32096e-47 2.32534e-47 2.32848e-47 2.33007e-47 2.3297e-47 2.32681e-47 2.32073e-47 2.31069e-47 2.29585e-47 2.27534e-47 2.24831e-47 2.21398e-47 2.17165e-47 2.12081e-47 2.06111e-47 1.99244e-47 1.91493e-47 1.82896e-47 1.7352e-47 1.63456e-47 1.52819e-47 1.41742e-47 1.30376e-47 1.18881e-47 1.07419e-47 9.61526e-48 8.52334e-48 7.47989e-48 6.49672e-48 5.58331e-48 4.7466e-48 3.99089e-48 3.31791e-48 2.72702e-48 2.21549e-48 1.77887e-48 1.41143e-48 1.10653e-48 8.57066e-49 6.55814e-49 4.95716e-49 3.70125e-49 2.72966e-49 1.98839e-49 1.43061e-49 1.01662e-49 7.13546e-50 4.94664e-50 3.38712e-50 2.29085e-50 1.53044e-50 1.00998e-50 6.58409e-51 4.24024e-51 2.69785e-51 1.6959e-51 1.05333e-51 6.46451e-52 3.9205e-52 2.34969e-52 1.39179e-52 8.14817e-53 4.71521e-53 2.6973e-53 1.52537e-53 8.52853e-54 4.71473e-54 2.57725e-54 1.39317e-54 7.44773e-55 3.93742e-55 2.05797e-55 1.06189e-55 5.37554e-56 2.59837e-56 1.04716e-56 0 
0 1.26573e-73 4.21464e-73 1.26983e-72 3.7607e-72 1.10393e-71 3.21468e-71 9.28701e-71 2.66157e-70 7.56665e-70 2.13378e-69 5.96832e-69 1.65573e-68 4.55551e-68 1.243e-67 3.36334e-67 9.02418e-67 2.40082e-66 6.33288e-66 1.65618e-65 4.29389e-65 1.10359e-64 2.8116e-64 7.09999e-64 1.77704e-63 4.408e-63 1.08359e-62 2.63962e-62 6.37149e-62 1.52383e-61 3.61073e-61 8.47601e-61 1.97104e-60 4.54021e-60 1.03587e-59 2.34072e-59 5.23815e-59 1.16081e-58 2.54722e-58 5.53429e-58 1.19046e-57 2.53508e-57 5.34391e-57 1.11502e-56 2.30267e-56 4.70619e-56 9.51833e-56 1.90489e-55 3.77193e-55 7.38932e-55 1.43205e-54 2.74526e-54 5.20533e-54 9.76146e-54 1.81028e-53 3.31972e-53 6.0193e-53 1.07905e-52 1.91228e-52 3.34993e-52 5.80038e-52 9.92605e-52 1.67864e-51 2.8052e-51 4.63186e-51 7.55607e-51 1.21773e-50 1.93856e-50 3.04825e-50 4.73399e-50 7.26067e-50 1.09968e-49 1.64461e-49 2.42849e-49 3.54045e-49 5.09569e-49 7.24008e-49 1.01545e-48 1.4058e-48 1.92098e-48 2.59086e-48 3.44882e-48 4.53104e-48 5.87519e-48 7.51868e-48 9.49652e-48 1.18386e-47 1.4567e-47 1.76928e-47 2.12136e-47 2.5111e-47 2.93494e-47 3.38752e-47 3.86179e-47 4.34922e-47 4.84011e-47 5.32411e-47 5.7907e-47 6.2298e-47 6.63238e-47 6.99095e-47 7.29998e-47 7.55623e-47 7.75879e-47 7.90912e-47 8.01075e-47 8.06901e-47 8.0905e-47 8.08265e-47 8.05315e-47 8.00952e-47 7.95867e-47 7.90657e-47 7.8581e-47 7.81689e-47 7.78539e-47 7.76491e-47 7.75582e-47 7.75773e-47 7.76966e-47 7.7903e-47 7.81815e-47 7.85164e-47 7.88927e-47 7.92966e-47 7.97155e-47 8.01381e-47 8.05543e-47 8.09545e-47 8.13295e-47 8.16704e-47 8.19681e-47 8.22135e-47 8.23977e-47 8.25124e-47 8.25501e-47 8.25048e-47 8.23723e-47 8.21505e-47 8.18399e-47 8.1443e-47 8.09648e-47 8.0412e-47 7.97926e-47 7.91157e-47 7.83904e-47 7.76259e-47 7.68306e-47 7.60125e-47 7.51789e-47 7.43367e-47 7.34929e-47 7.26549e-47 7.18307e-47 7.10299e-47 7.0263e-47 6.95419e-47 6.88792e-47 6.8288e-47 6.77803e-47 6.73669e-47 6.70557e-47 6.68517e-47 6.67555e-47 6.67634e-47 6.68677e-47 6.70567e-47 6.73158e-47 6.76281e-47 6.79765e-47 6.83438e-47 6.87149e-47 6.90768e-47 6.94199e-47 6.97376e-47 7.00263e-47 7.0285e-47 7.05138e-47 7.07136e-47 7.08841e-47 7.10234e-47 7.11264e-47 7.11846e-47 7.11854e-47 7.1112e-47 7.09441e-47 7.06581e-47 7.02284e-47 6.96283e-47 6.88316e-47 6.78136e-47 6.65529e-47 6.50325e-47 6.32412e-47 6.11743e-47 5.8835e-47 5.6234e-47 5.33906e-47 5.03319e-47 4.70921e-47 4.37119e-47 4.02371e-47 3.67167e-47 3.32009e-47 2.97397e-47 2.63803e-47 2.31658e-47 2.01332e-47 1.73126e-47 1.47261e-47 1.23877e-47 1.03035e-47 8.47207e-48 6.88544e-48 5.53031e-48 4.38921e-48 3.44187e-48 2.66645e-48 2.04065e-48 1.54267e-48 1.15192e-48 8.49571e-49 6.18863e-49 4.45245e-49 3.16381e-49 2.22039e-49 1.53908e-49 1.05369e-49 7.12519e-50 4.7591e-50 3.13989e-50 2.04637e-50 1.31751e-50 8.38004e-51 5.26606e-51 3.26962e-51 2.0059e-51 1.21604e-51 7.28527e-52 4.31349e-52 2.52424e-52 1.4601e-52 8.34863e-53 4.71914e-53 2.63729e-53 1.45725e-53 7.96203e-54 4.30189e-54 2.29861e-54 1.21461e-54 6.34524e-55 3.27246e-55 1.6558e-55 8.00024e-56 3.22314e-56 0 
0 3.73881e-73 1.24531e-72 3.75327e-72 1.11195e-71 3.26528e-71 9.51215e-71 2.74905e-70 7.8816e-70 2.24157e-69 6.32375e-69 1.76953e-68 4.91109e-68 1.3518e-67 3.6901e-67 9.98921e-67 2.68143e-66 7.13707e-66 1.8835e-65 4.92811e-65 1.27831e-64 3.28709e-64 8.3787e-64 2.11692e-63 5.30117e-63 1.31567e-62 3.236e-62 7.88721e-62 1.90487e-61 4.55833e-61 1.08073e-60 2.53844e-60 5.90647e-60 1.36135e-59 3.10787e-59 7.02709e-59 1.57354e-58 3.48928e-58 7.66159e-58 1.6657e-57 3.58536e-57 7.64005e-57 1.61159e-56 3.3649e-56 6.95368e-56 1.42216e-55 2.87832e-55 5.76434e-55 1.14221e-54 2.23918e-54 4.34256e-54 8.33064e-54 1.5807e-53 2.96634e-53 5.50498e-53 1.01022e-52 1.83301e-52 3.28823e-52 5.83136e-52 1.02223e-51 1.77119e-51 3.03302e-51 5.13266e-51 8.58279e-51 1.41806e-50 2.31476e-50 3.73269e-50 5.94575e-50 9.35458e-50 1.45358e-49 2.23058e-49 3.38006e-49 5.05741e-49 7.47131e-49 1.08969e-48 1.56897e-48 2.23002e-48 3.12868e-48 4.33262e-48 5.92184e-48 7.9885e-48 1.06356e-47 1.39746e-47 1.81214e-47 2.31911e-47 2.92908e-47 3.65116e-47 4.492e-47 5.45484e-47 6.53866e-47 7.73752e-47 9.04009e-47 1.04295e-46 1.18837e-46 1.3376e-46 1.48762e-46 1.63522e-46 1.77715e-46 1.91029e-46 2.03188e-46 2.13963e-46 2.23189e-46 2.30769e-46 2.36683e-46 2.4098e-46 2.43776e-46 2.45241e-46 2.45584e-46 2.45038e-46 2.43844e-46 2.42236e-46 2.40427e-46 2.38603e-46 2.36913e-46 2.35467e-46 2.3434e-46 2.33569e-46 2.33165e-46 2.33112e-46 2.3338e-46 2.33926e-46 2.34702e-46 2.35659e-46 2.3675e-46 2.37931e-46 2.39162e-46 2.4041e-46 2.41643e-46 2.4283e-46 2.43945e-46 2.4496e-46 2.45847e-46 2.46579e-46 2.47129e-46 2.47472e-46 2.47586e-46 2.47453e-46 2.4706e-46 2.464e-46 2.45475e-46 2.44293e-46 2.42868e-46 2.41221e-46 2.39375e-46 2.37358e-46 2.35197e-46 2.32919e-46 2.3055e-46 2.28112e-46 2.25629e-46 2.2312e-46 2.20606e-46 2.18108e-46 2.15652e-46 2.13265e-46 2.10978e-46 2.08828e-46 2.06851e-46 2.05088e-46 2.03574e-46 2.02341e-46 2.01413e-46 2.00806e-46 2.00521e-46 2.00547e-46 2.00861e-46 2.01428e-46 2.02205e-46 2.0314e-46 2.04183e-46 2.05282e-46 2.06391e-46 2.07474e-46 2.085e-46 2.09451e-46 2.10317e-46 2.11094e-46 2.11784e-46 2.12392e-46 2.12915e-46 2.13351e-46 2.13684e-46 2.1389e-46 2.13931e-46 2.13759e-46 2.13312e-46 2.1252e-46 2.11306e-46 2.09588e-46 2.07288e-46 2.0433e-46 2.00647e-46 1.96186e-46 1.90909e-46 1.848e-46 1.77865e-46 1.70133e-46 1.61658e-46 1.52519e-46 1.42817e-46 1.32674e-46 1.22226e-46 1.11621e-46 1.01011e-46 9.05481e-47 8.03779e-47 7.06322e-47 6.1426e-47 5.28527e-47 4.49822e-47 3.78594e-47 3.15048e-47 2.59161e-47 2.10708e-47 1.69296e-47 1.34405e-47 1.05422e-47 8.16887e-48 6.25271e-48 4.72743e-48 3.53028e-48 2.60378e-48 1.89671e-48 1.36455e-48 9.69548e-49 6.80366e-49 4.71534e-49 3.22769e-49 2.18216e-49 1.45719e-49 9.61157e-50 6.26241e-50 4.03068e-50 2.56288e-50 1.60996e-50 9.99236e-51 6.12789e-51 3.71342e-51 2.22376e-51 1.31608e-51 7.69818e-52 4.4508e-52 2.5437e-52 1.43715e-52 8.02755e-53 4.43344e-53 2.42108e-53 1.30744e-53 6.98234e-54 3.6876e-54 1.92542e-54 9.92487e-55 5.01927e-55 2.42404e-55 9.76278e-56 0 
0 1.0946e-72 3.64689e-72 1.09953e-71 3.2587e-71 9.57285e-71 2.78976e-70 8.06569e-70 2.31338e-69 6.58208e-69 1.85766e-68 5.20037e-68 1.44392e-67 3.97622e-67 1.08591e-66 2.94093e-66 7.8981e-66 2.10321e-65 5.55317e-65 1.45368e-64 3.77265e-64 9.70605e-64 2.47533e-63 6.25739e-63 1.56781e-62 3.89322e-62 9.58101e-62 2.33654e-61 5.64631e-61 1.35195e-60 3.20721e-60 7.53772e-60 1.75496e-59 4.04742e-59 9.2458e-59 2.09187e-58 4.68722e-58 1.04006e-57 2.28522e-57 4.97159e-57 1.07084e-56 2.28342e-56 4.81996e-56 1.00708e-55 2.08263e-55 4.26239e-55 8.63281e-55 1.73011e-54 3.4307e-54 6.7304e-54 1.30621e-53 2.50761e-53 4.76154e-53 8.94201e-53 1.66068e-52 3.04974e-52 5.53764e-52 9.9411e-52 1.76422e-51 3.09487e-51 5.36613e-51 9.19543e-51 1.55717e-50 2.60563e-50 4.30791e-50 7.0365e-50 1.13539e-49 1.80965e-49 2.84885e-49 4.42928e-49 6.80063e-49 1.03106e-48 1.54349e-48 2.28126e-48 3.32867e-48 4.79469e-48 6.81737e-48 9.56787e-48 1.32536e-47 1.81197e-47 2.44486e-47 3.25555e-47 4.27816e-47 5.54808e-47 7.1004e-47 8.96768e-47 1.11775e-46 1.37497e-46 1.66936e-46 2.00053e-46 2.36657e-46 2.7639e-46 3.18726e-46 3.62978e-46 4.08318e-46 4.53815e-46 4.98477e-46 5.41305e-46 5.81349e-46 6.17766e-46 6.49865e-46 6.77151e-46 6.99345e-46 7.16402e-46 7.28494e-46 7.35995e-46 7.39443e-46 7.39494e-46 7.36876e-46 7.32335e-46 7.26594e-46 7.20312e-46 7.14053e-46 7.08273e-46 7.03307e-46 6.99374e-46 6.96587e-46 6.94967e-46 6.94465e-46 6.94977e-46 6.96369e-46 6.9849e-46 7.01186e-46 7.0431e-46 7.07726e-46 7.11312e-46 7.14961e-46 7.18576e-46 7.22068e-46 7.25352e-46 7.28345e-46 7.30965e-46 7.3313e-46 7.34759e-46 7.35778e-46 7.3612e-46 7.35731e-46 7.34573e-46 7.32628e-46 7.29899e-46 7.26409e-46 7.22202e-46 7.17337e-46 7.11886e-46 7.05928e-46 6.99546e-46 6.92818e-46 6.85821e-46 6.78624e-46 6.71291e-46 6.63881e-46 6.56457e-46 6.4908e-46 6.41824e-46 6.3477e-46 6.28012e-46 6.21656e-46 6.15814e-46 6.106e-46 6.06123e-46 6.02479e-46 5.99739e-46 5.97947e-46 5.9711e-46 5.97195e-46 5.98133e-46 5.9982e-46 6.02126e-46 6.04903e-46 6.07996e-46 6.11255e-46 6.14546e-46 6.17755e-46 6.20798e-46 6.2362e-46 6.26192e-46 6.28508e-46 6.30575e-46 6.32405e-46 6.34002e-46 6.35352e-46 6.36418e-46 6.37128e-46 6.37374e-46 6.37011e-46 6.3586e-46 6.33712e-46 6.30336e-46 6.25491e-46 6.18935e-46 6.10439e-46 5.99798e-46 5.86845e-46 5.71461e-46 5.53585e-46 5.33223e-46 5.10453e-46 4.85426e-46 4.58369e-46 4.29576e-46 3.99404e-46 3.68259e-46 3.36583e-46 3.04835e-46 2.73473e-46 2.42938e-46 2.13635e-46 1.85915e-46 1.60067e-46 1.36311e-46 1.14789e-46 9.55691e-47 7.86512e-47 6.3972e-47 5.14173e-47 4.08327e-47 3.2036e-47 2.4829e-47 1.90081e-47 1.4373e-47 1.07341e-47 7.91731e-48 5.7673e-48 4.14901e-48 2.94776e-48 2.06831e-48 1.43326e-48 9.809e-49 6.63025e-49 4.42645e-49 2.9189e-49 1.90125e-49 1.22332e-49 7.77573e-50 4.88284e-50 3.02941e-50 1.85707e-50 1.12489e-50 6.73338e-51 3.9832e-51 2.32882e-51 1.3458e-51 7.68766e-52 4.34124e-52 2.42367e-52 1.33785e-52 7.30209e-53 3.94119e-53 2.10365e-53 1.11041e-53 5.79466e-54 2.98533e-54 1.50898e-54 7.28419e-55 2.9327e-55 0 
0 3.17892e-72 1.05944e-71 3.19532e-71 9.47357e-71 2.78406e-70 8.11661e-70 2.3476e-69 6.73609e-69 1.91737e-68 5.41369e-68 1.51618e-67 4.21165e-67 1.16031e-66 3.17028e-66 8.59002e-66 2.30803e-65 6.14913e-65 1.62438e-64 4.25438e-64 1.10468e-63 2.84355e-63 7.25578e-63 1.83518e-62 4.60067e-62 1.14309e-61 2.81469e-61 6.86823e-61 1.66071e-60 3.97877e-60 9.44455e-60 2.22107e-59 5.17442e-59 1.19413e-58 2.72958e-58 6.17974e-58 1.38561e-57 3.07662e-57 6.76456e-57 1.47267e-56 3.17422e-56 6.77334e-56 1.43077e-55 2.99157e-55 6.191e-55 1.268e-54 2.57002e-54 5.15441e-54 1.02284e-53 2.00813e-53 3.90021e-53 7.49311e-53 1.42389e-52 2.67602e-52 4.97356e-52 9.14047e-52 1.66095e-51 2.98393e-51 5.29941e-51 9.30323e-51 1.61424e-50 2.76815e-50 4.69095e-50 7.85489e-50 1.29954e-49 2.12407e-49 3.42958e-49 5.46973e-49 8.61602e-49 1.34038e-48 2.05916e-48 3.12363e-48 4.67847e-48 6.91813e-48 1.00991e-47 1.45531e-47 2.07005e-47 2.90624e-47 4.02704e-47 5.50709e-47 7.43229e-47 9.89858e-47 1.30096e-46 1.68728e-46 2.15943e-46 2.72727e-46 3.39906e-46 4.1807e-46 5.07481e-46 6.07997e-46 7.19009e-46 8.39398e-46 9.67527e-46 1.10127e-45 1.23809e-45 1.37511e-45 1.5093e-45 1.63762e-45 1.75718e-45 1.86542e-45 1.96028e-45 2.04028e-45 2.10465e-45 2.15327e-45 2.18676e-45 2.20629e-45 2.21358e-45 2.21065e-45 2.19977e-45 2.18323e-45 2.16326e-45 2.14186e-45 2.12076e-45 2.10133e-45 2.08458e-45 2.07115e-45 2.06137e-45 2.05528e-45 2.05271e-45 2.05334e-45 2.05672e-45 2.0624e-45 2.06989e-45 2.07874e-45 2.08852e-45 2.09886e-45 2.10944e-45 2.11996e-45 2.13014e-45 2.13973e-45 2.14849e-45 2.15616e-45 2.16251e-45 2.1673e-45 2.1703e-45 2.17132e-45 2.17019e-45 2.16681e-45 2.16112e-45 2.15313e-45 2.14291e-45 2.13059e-45 2.11634e-45 2.10036e-45 2.08291e-45 2.06421e-45 2.0445e-45 2.02401e-45 2.00293e-45 1.98145e-45 1.95974e-45 1.93799e-45 1.91638e-45 1.89511e-45 1.87444e-45 1.85463e-45 1.83599e-45 1.81886e-45 1.80357e-45 1.79044e-45 1.77975e-45 1.77172e-45 1.76648e-45 1.76404e-45 1.76431e-45 1.76709e-45 1.77207e-45 1.77887e-45 1.78705e-45 1.79615e-45 1.80574e-45 1.81542e-45 1.82486e-45 1.83381e-45 1.84212e-45 1.8497e-45 1.85655e-45 1.86269e-45 1.86817e-45 1.873e-45 1.87716e-45 1.88053e-45 1.88293e-45 1.88404e-45 1.88343e-45 1.88059e-45 1.87489e-45 1.86566e-45 1.85218e-45 1.83372e-45 1.8096e-45 1.77918e-45 1.74195e-45 1.69752e-45 1.64569e-45 1.58644e-45 1.51997e-45 1.44669e-45 1.36725e-45 1.28249e-45 1.19346e-45 1.10135e-45 1.00748e-45 9.13204e-46 8.19911e-46 7.28925e-46 6.41471e-46 5.58624e-46 4.81272e-46 4.10091e-46 3.45533e-46 2.87824e-46 2.36981e-46 1.9283e-46 1.55042e-46 1.23164e-46 9.66553e-47 7.49272e-47 5.73708e-47 4.33864e-47 3.24045e-47 2.3902e-47 1.74111e-47 1.25251e-47 8.89798e-48 6.24259e-48 4.3252e-48 2.95956e-48 2.00004e-48 1.33493e-48 8.80038e-49 5.73048e-49 3.68595e-49 2.34207e-49 1.47018e-49 9.1177e-50 5.58696e-50 3.38275e-50 2.02395e-50 1.19673e-50 6.99351e-51 4.03948e-51 2.30633e-51 1.30173e-51 7.2636e-52 4.00732e-52 2.18605e-52 1.17925e-52 6.29088e-53 3.31878e-53 1.73094e-53 8.91266e-54 4.50263e-54 2.17249e-54 8.74368e-55 0 
0 9.15858e-72 3.05319e-71 9.21192e-71 2.73223e-70 8.03252e-70 2.34273e-69 6.77875e-69 1.94588e-68 5.54114e-68 1.56522e-67 4.38557e-67 1.21878e-66 3.35931e-66 9.18283e-66 2.48933e-65 6.69177e-65 1.78374e-64 4.71438e-64 1.23538e-63 3.20943e-63 8.26583e-63 2.11032e-62 5.34053e-62 1.33959e-61 3.33029e-61 8.20515e-61 2.00336e-60 4.84697e-60 1.16196e-59 2.75992e-59 6.49462e-59 1.51402e-58 3.49627e-58 7.99722e-58 1.81178e-57 4.06508e-57 9.03239e-57 1.98734e-56 4.32957e-56 9.33871e-56 1.99419e-55 4.2155e-55 8.82063e-55 1.82677e-54 3.74427e-54 7.59474e-54 1.52435e-53 3.02724e-53 5.94789e-53 1.1561e-52 2.22282e-52 4.22721e-52 7.95069e-52 1.47883e-51 2.71992e-51 4.94626e-51 8.89289e-51 1.58057e-50 2.77683e-50 4.82179e-50 8.27469e-50 1.40326e-49 2.35142e-49 3.89301e-49 6.36745e-49 1.0288e-48 1.64187e-48 2.58795e-48 4.02849e-48 6.19244e-48 9.3989e-48 1.40849e-47 2.08381e-47 3.0434e-47 4.38757e-47 6.24345e-47 8.76871e-47 1.21543e-46 1.66261e-46 2.24438e-46 2.98972e-46 3.92992e-46 5.09738e-46 6.52407e-46 8.23948e-46 1.02683e-45 1.26279e-45 1.53255e-45 1.83563e-45 2.17007e-45 2.53242e-45 2.91761e-45 3.31912e-45 3.72916e-45 4.139e-45 4.53941e-45 4.92114e-45 5.2755e-45 5.59481e-45 5.87291e-45 6.10548e-45 6.29028e-45 6.42723e-45 6.5183e-45 6.56728e-45 6.57946e-45 6.56118e-45 6.51938e-45 6.4611e-45 6.39311e-45 6.32151e-45 6.25148e-45 6.18717e-45 6.13155e-45 6.08655e-45 6.05306e-45 6.03116e-45 6.02026e-45 6.01932e-45 6.027e-45 6.04183e-45 6.06233e-45 6.08709e-45 6.11482e-45 6.14438e-45 6.17477e-45 6.20509e-45 6.23453e-45 6.26233e-45 6.28774e-45 6.31004e-45 6.32851e-45 6.34246e-45 6.35122e-45 6.35423e-45 6.351e-45 6.34122e-45 6.32471e-45 6.30151e-45 6.27182e-45 6.23601e-45 6.19458e-45 6.14817e-45 6.09744e-45 6.0431e-45 5.98583e-45 5.92627e-45 5.86501e-45 5.80259e-45 5.73953e-45 5.67631e-45 5.6135e-45 5.55168e-45 5.49156e-45 5.43395e-45 5.37974e-45 5.3299e-45 5.2854e-45 5.24721e-45 5.21613e-45 5.19279e-45 5.17757e-45 5.17052e-45 5.17138e-45 5.17954e-45 5.19413e-45 5.214e-45 5.2379e-45 5.26448e-45 5.29248e-45 5.32072e-45 5.34826e-45 5.3744e-45 5.39866e-45 5.42085e-45 5.44095e-45 5.45907e-45 5.47534e-45 5.48985e-45 5.50255e-45 5.51316e-45 5.5211e-45 5.52551e-45 5.52516e-45 5.51854e-45 5.50385e-45 5.47909e-45 5.44213e-45 5.39084e-45 5.32312e-45 5.2371e-45 5.13117e-45 5.00413e-45 4.85526e-45 4.68441e-45 4.49204e-45 4.2793e-45 4.04797e-45 3.8005e-45 3.53988e-45 3.26963e-45 2.99358e-45 2.71579e-45 2.44037e-45 2.17128e-45 1.91221e-45 1.66643e-45 1.43664e-45 1.22491e-45 1.03267e-45 8.60645e-46 7.08944e-46 5.77104e-46 4.6418e-46 3.68855e-46 2.89543e-46 2.24502e-46 1.71927e-46 1.30035e-46 9.71282e-47 7.16453e-47 5.21888e-47 3.75413e-47 2.66676e-47 1.8707e-47 1.29592e-47 8.86572e-48 5.99002e-48 3.99703e-48 2.63426e-48 1.7148e-48 1.10262e-48 7.00359e-49 4.39465e-49 2.72436e-49 1.66867e-49 1.00989e-49 6.03955e-50 3.56941e-50 2.08488e-50 1.20363e-50 6.86857e-51 3.87467e-51 2.1609e-51 1.19152e-51 6.49632e-52 3.50242e-52 1.86737e-52 9.84576e-53 5.13222e-53 2.6411e-53 1.33354e-53 6.43112e-54 2.58743e-54 0 
0 2.61748e-71 8.72852e-71 2.6345e-70 7.8169e-70 2.29903e-69 6.70801e-69 1.94179e-68 5.5764e-68 1.58864e-67 4.48949e-67 1.25847e-66 3.499e-66 9.64882e-66 2.63882e-65 7.15697e-65 1.92489e-64 5.13354e-64 1.35749e-63 3.55912e-63 9.25137e-63 2.38398e-62 6.08985e-62 1.54203e-61 3.87017e-61 9.62712e-61 2.37335e-60 5.79828e-60 1.40372e-59 3.36726e-59 8.00312e-59 1.88451e-58 4.39607e-58 1.01584e-57 2.32518e-57 5.27135e-57 1.18356e-56 2.63167e-56 5.79444e-56 1.26328e-55 2.72685e-55 5.82724e-55 1.23274e-54 2.58137e-54 5.35016e-54 1.09745e-53 2.22776e-53 4.47486e-53 8.89373e-53 1.74881e-52 3.40188e-52 6.54598e-52 1.24587e-51 2.34514e-51 4.36546e-51 8.03551e-51 1.46245e-50 2.63142e-50 4.6806e-50 8.22954e-50 1.43012e-49 2.4561e-49 4.16833e-49 6.98997e-49 1.1581e-48 1.89556e-48 3.06481e-48 4.8945e-48 7.71988e-48 1.20247e-47 1.84951e-47 2.80884e-47 4.21159e-47 6.23417e-47 9.10947e-47 1.31389e-46 1.87043e-46 2.62797e-46 3.64388e-46 4.98602e-46 6.73239e-46 8.97002e-46 1.17927e-45 1.52976e-45 1.95801e-45 2.47281e-45 3.08149e-45 3.78909e-45 4.59765e-45 5.50542e-45 6.50634e-45 7.58967e-45 8.73993e-45 9.9372e-45 1.11578e-44 1.23752e-44 1.35617e-44 1.46893e-44 1.57319e-44 1.66667e-44 1.74755e-44 1.81456e-44 1.86709e-44 1.90515e-44 1.92941e-44 1.94106e-44 1.94173e-44 1.93338e-44 1.91813e-44 1.89812e-44 1.8754e-44 1.85181e-44 1.82891e-44 1.80791e-44 1.78972e-44 1.77488e-44 1.76365e-44 1.75603e-44 1.75183e-44 1.75071e-44 1.75225e-44 1.75601e-44 1.76152e-44 1.76836e-44 1.77614e-44 1.78451e-44 1.79316e-44 1.80183e-44 1.81027e-44 1.81826e-44 1.82557e-44 1.832e-44 1.83733e-44 1.84136e-44 1.8439e-44 1.84478e-44 1.84386e-44 1.84105e-44 1.8363e-44 1.82962e-44 1.82107e-44 1.81074e-44 1.7988e-44 1.78542e-44 1.77079e-44 1.75513e-44 1.73862e-44 1.72145e-44 1.7038e-44 1.68581e-44 1.66763e-44 1.64941e-44 1.63129e-44 1.61347e-44 1.59613e-44 1.57951e-44 1.56387e-44 1.54948e-44 1.53664e-44 1.52562e-44 1.51665e-44 1.50992e-44 1.50554e-44 1.50352e-44 1.50379e-44 1.50617e-44 1.51041e-44 1.51617e-44 1.5231e-44 1.5308e-44 1.53891e-44 1.54708e-44 1.55506e-44 1.56262e-44 1.56966e-44 1.5761e-44 1.58195e-44 1.58725e-44 1.59205e-44 1.59638e-44 1.60023e-44 1.60353e-44 1.60612e-44 1.60776e-44 1.60809e-44 1.60669e-44 1.60303e-44 1.59653e-44 1.58657e-44 1.57251e-44 1.55374e-44 1.52968e-44 1.49986e-44 1.46389e-44 1.42154e-44 1.37272e-44 1.31755e-44 1.25631e-44 1.18952e-44 1.11786e-44 1.04219e-44 9.63515e-45 8.82971e-45 8.01745e-45 7.2105e-45 6.42067e-45 5.65898e-45 4.93521e-45 4.25757e-45 3.6324e-45 3.06409e-45 2.55501e-45 2.10565e-45 1.71479e-45 1.37976e-45 1.09676e-45 8.61161e-46 6.6786e-46 5.11544e-46 3.86946e-46 2.89047e-46 2.13219e-46 1.55314e-46 1.11717e-46 7.93512e-47 5.56567e-47 3.85496e-47 2.63676e-47 1.78108e-47 1.18817e-47 7.82842e-48 5.09438e-48 3.27457e-48 2.07916e-48 1.30413e-48 8.0813e-49 4.94765e-49 2.99299e-49 1.78909e-49 1.05685e-49 6.1699e-50 3.56013e-50 2.03053e-50 1.14484e-50 6.38126e-51 3.51666e-51 1.91624e-51 1.03253e-51 5.5019e-52 2.89921e-52 1.51036e-52 7.76799e-53 3.92001e-53 1.88952e-53 7.59933e-54 0 
0 7.4203e-71 2.47523e-70 7.47373e-70 2.21843e-69 6.5273e-69 1.90531e-68 5.51772e-68 1.58526e-67 4.51821e-67 1.27742e-66 3.58248e-66 9.96527e-66 2.74934e-65 7.52278e-65 2.04134e-64 5.49307e-64 1.46573e-63 3.87797e-63 1.01729e-62 2.64574e-62 6.82164e-62 1.74358e-61 4.41753e-61 1.10937e-60 2.76124e-60 6.81142e-60 1.66512e-59 4.0337e-59 9.68234e-59 2.30275e-58 5.42596e-58 1.26659e-57 2.92886e-57 6.70858e-57 1.52196e-56 3.41966e-56 7.60921e-56 1.67664e-55 3.65807e-55 7.90207e-55 1.68995e-54 3.57781e-54 7.49782e-54 1.55522e-53 3.19268e-53 6.48612e-53 1.30391e-52 2.5936e-52 5.10405e-52 9.9368e-52 1.91363e-51 3.64512e-51 6.86701e-51 1.27934e-50 2.35682e-50 4.29288e-50 7.7306e-50 1.37619e-49 2.4216e-49 4.21157e-49 7.23873e-49 1.22946e-48 2.0633e-48 3.42107e-48 5.60365e-48 9.06674e-48 1.44897e-47 2.28696e-47 3.56457e-47 5.48613e-47 8.33679e-47 1.25074e-46 1.85242e-46 2.70817e-46 3.90794e-46 5.56575e-46 7.82303e-46 1.08511e-45 1.48526e-45 2.00601e-45 2.67332e-45 3.51515e-45 4.56038e-45 5.83738e-45 7.37215e-45 9.1862e-45 1.12942e-44 1.37016e-44 1.64026e-44 1.93783e-44 2.25956e-44 2.60076e-44 2.95537e-44 3.31624e-44 3.67542e-44 4.02452e-44 4.35523e-44 4.65977e-44 4.93136e-44 5.16465e-44 5.35602e-44 5.50374e-44 5.60807e-44 5.67112e-44 5.69663e-44 5.68965e-44 5.65615e-44 5.60255e-44 5.53534e-44 5.46067e-44 5.38404e-44 5.3101e-44 5.24248e-44 5.18377e-44 5.13558e-44 5.0986e-44 5.07277e-44 5.05746e-44 5.05163e-44 5.05399e-44 5.06314e-44 5.0777e-44 5.09636e-44 5.11795e-44 5.1414e-44 5.16581e-44 5.19037e-44 5.21436e-44 5.23711e-44 5.25799e-44 5.27636e-44 5.29163e-44 5.30318e-44 5.31048e-44 5.31303e-44 5.31045e-44 5.30245e-44 5.28889e-44 5.2698e-44 5.24534e-44 5.21583e-44 5.18168e-44 5.14342e-44 5.1016e-44 5.0568e-44 5.0096e-44 4.96052e-44 4.91004e-44 4.85861e-44 4.80664e-44 4.75453e-44 4.70274e-44 4.65176e-44 4.60215e-44 4.5546e-44 4.50983e-44 4.46865e-44 4.43189e-44 4.40034e-44 4.37467e-44 4.35542e-44 4.3429e-44 4.33717e-44 4.33799e-44 4.34488e-44 4.35709e-44 4.37368e-44 4.3936e-44 4.41573e-44 4.43902e-44 4.46251e-44 4.4854e-44 4.50714e-44 4.52736e-44 4.54593e-44 4.56284e-44 4.57825e-44 4.5923e-44 4.60511e-44 4.6167e-44 4.62686e-44 4.63519e-44 4.64098e-44 4.64327e-44 4.6408e-44 4.63209e-44 4.61545e-44 4.58909e-44 4.55114e-44 4.49978e-44 4.43333e-44 4.35029e-44 4.2495e-44 4.13017e-44 3.99199e-44 3.83516e-44 3.66046e-44 3.46924e-44 3.26343e-44 3.04549e-44 2.81831e-44 2.58515e-44 2.34948e-44 2.11486e-44 1.88478e-44 1.66251e-44 1.45096e-44 1.25261e-44 1.06937e-44 9.02592e-45 7.53037e-45 6.20898e-45 5.05861e-45 4.07181e-45 3.23767e-45 2.54286e-45 1.97251e-45 1.51108e-45 1.14316e-45 8.54001e-46 6.2998e-46 4.58886e-46 3.30058e-46 2.34413e-46 1.64395e-46 1.13845e-46 7.78533e-47 5.2576e-47 3.50643e-47 2.30956e-47 1.50246e-47 9.65411e-48 6.12748e-48 3.84184e-48 2.37966e-48 1.45626e-48 8.80529e-49 5.26091e-49 3.10616e-49 1.81246e-49 1.04526e-49 5.95848e-50 3.35761e-50 1.87046e-50 1.0302e-50 5.61038e-51 3.02127e-51 1.60895e-51 8.47323e-52 4.41155e-52 2.26757e-52 1.14364e-52 5.50976e-53 2.2151e-53 0 