# vtk DataFile Version 3.0
Gray-Scott Simulation Output
ASCII
DATASET STRUCTURED_POINTS
DIMENSIONS 256 256 1
SPACING 1.0 1.0 1.0
ORIGIN 0 0 0
POINT_DATA 65536
SCALARS u double
LOOKUP_TABLE default
0 0 0 0 0 0 0 0 0 0 0 0 0 0 0 0 0 0 0 0 0 0 0 0 0 0 0 0 0 0 0 0 0 0 0 0 0 0 0 0 0 0 0 0 0 0 0 0 0 0 0 0 0 0 0 0 0 0 0 0 0 0 0 0 0 0 0 0 0 0 0 0 0 0 0 0 0 0 0 0 0 0 0 0 0 0 0 0 0 0 0 0 0 0 0 0 0 0 0 0 0 0 0 0 0 0 0 0 0 0 0 0 0 0 0 0 0 0 0 0 0 0 0 0 0 0 0 0 0 0 0 0 0 0 0 0 0 0 0 0 0 0 0 0 0 0 0 0 0 0 0 0 0 0 0 0 0 0 0 0 0 0 0 0 0 0 0 0 0 0 0 0 0 0 0 0 0 0 0 0 0 0 0 0 0 0 0 0 0 0 0 0 0 0 0 0 0 0 0 0 0 0 0 0 0 0 0 0 0 0 0 0 0 0 0 0 0 0 0 0 0 0 0 0 0 0 0 0 0 0 0 0 0 0 0 0 0 0 0 0 0 0 0 0 0 0 0 0 0 0 0 0 0 0 0 0 
0 9.35015e-124 7.95737e-123 6.61394e-122 5.44036e-121 4.42905e-120 3.56835e-119 2.84483e-118 2.24404e-117 1.75125e-116 1.35196e-115 1.03236e-114 7.79651e-114 5.82272e-113 4.29989e-112 3.13939e-111 2.26589e-110 1.61653e-109 1.1398e-108 7.94177e-108 5.46758e-107 3.71882e-106 2.49856e-105 1.65802e-104 1.08653e-103 7.03051e-103 4.49118e-102 2.83203e-101 1.76251e-100 1.08242e-99 6.55869e-99 3.92039e-98 2.3113e-97 1.34377e-96 7.70297e-96 4.35289e-95 2.4244e-94 1.33062e-93 7.19522e-93 3.83255e-92 2.01046e-91 1.03843e-90 5.28009e-90 2.64234e-89 1.30114e-88 6.30297e-88 3.00295e-87 1.40679e-86 6.47851e-86 2.93208e-85 1.30382e-84 5.69481e-84 2.44253e-83 1.02843e-82 4.24967e-82 1.72286e-81 6.85045e-81 2.67071e-80 1.02053e-79 3.82096e-79 1.40124e-78 5.03138e-78 1.76823e-77 6.07996e-77 2.04458e-76 6.72162e-76 2.15939e-75 6.77631e-75 2.07621e-74 6.20829e-74 1.81092e-73 5.1505e-73 1.42764e-72 3.85472e-72 1.01336e-71 2.59243e-71 6.45073e-71 1.56043e-70 3.66765e-70 8.37177e-70 1.85484e-69 3.98689e-69 8.30958e-69 1.67852e-68 3.28447e-68 6.22296e-68 1.14112e-67 2.02438e-67 3.47309e-67 5.76058e-67 9.2347e-67 1.43052e-66 2.14102e-66 3.09581e-66 4.32488e-66 5.83822e-66 7.6175e-66 9.61066e-66 1.17318e-65 1.38676e-65 1.58907e-65 1.76769e-65 1.91248e-65 2.01715e-65 2.08027e-65 2.10532e-65 2.09995e-65 2.07451e-65 2.04028e-65 2.0078e-65 1.98548e-65 1.97886e-65 1.99035e-65 2.01951e-65 2.06361e-65 2.11834e-65 2.17864e-65 2.23946e-65 2.29642e-65 2.34637e-65 2.38761e-65 2.41989e-65 2.44421e-65 2.46237e-65 2.47655e-65 2.48896e-65 2.5016e-65 2.51625e-65 2.53442e-65 2.55733e-65 2.5858e-65 2.61994e-65 2.65888e-65 2.70055e-65 2.74159e-65 2.77767e-65 2.80404e-65 2.81629e-65 2.8112e-65 2.78731e-65 2.74528e-65 2.68777e-65 2.61904e-65 2.54422e-65 2.46861e-65 2.39699e-65 2.33306e-65 2.27909e-65 2.23577e-65 2.20215e-65 2.17576e-65 2.15295e-65 2.12929e-65 2.10025e-65 2.06185e-65 2.01154e-65 1.94881e-65 1.87567e-65 1.79663e-65 1.71824e-65 1.64826e-65 1.59439e-65 1.56304e-65 1.5582e-65 1.58075e-65 1.62823e-65 1.69518e-65 1.77393e-65 1.85576e-65 1.93209e-65 1.99567e-65 2.04145e-65 2.06711e-65 2.0731e-65 2.06235e-65 2.03961e-65 2.01062e-65 1.98132e-65 1.95708e-65 1.94209e-65 1.93903e-65 1.94889e-65 1.971e-65 2.00311e-65 2.04159e-65 2.08166e-65 2.11768e-65 2.14355e-65 2.15328e-65 2.14162e-65 2.10473e-65 2.04069e-65 1.94978e-65 1.83435e-65 1.69846e-65 1.54722e-65 1.38621e-65 1.22089e-65 1.05634e-65 8.96987e-66 7.46625e-66 6.08327e-66 4.84425e-66 3.76442e-66 2.85039e-66 2.10017e-66 1.50392e-66 1.04563e-66 7.05276e-67 4.61202e-67 2.92264e-67 1.79423e-67 1.06692e-67 6.1448e-68 3.42796e-68 1.85258e-68 9.70119e-69 4.92378e-69 2.42292e-69 1.1564e-69 5.35517e-70 2.40725e-70 1.05086e-70 4.45694e-71 1.8374e-71 7.36626e-72 2.87325e-72 1.0909e-72 4.03359e-73 1.45309e-73 5.10255e-74 1.74733e-74 5.83779e-75 1.9037e-75 6.062e-76 1.88573e-76 5.73284e-77 1.70397e-77 4.95367e-78 1.40906e-78 3.92316e-79 1.06955e-79 2.85615e-80 7.47349e-81 1.9168e-81 4.8204e-82 1.189e-82 2.87742e-83 6.83414e-84 1.59349e-84 3.64857e-85 8.20588e-86 1.81319e-86 3.93076e-87 8.04335e-88 0 
0 7.95408e-123 6.76744e-122 5.62337e-121 4.62431e-120 3.76367e-119 3.03146e-118 2.41615e-117 1.90539e-116 1.48657e-115 1.14733e-114 8.7587e-114 6.61298e-113 4.93754e-112 3.64528e-111 2.66077e-110 1.91995e-109 1.36939e-108 9.65302e-108 6.72427e-107 4.62825e-106 3.14718e-105 2.11398e-104 1.40248e-103 9.18855e-103 5.94416e-102 3.79632e-101 2.39332e-100 1.48914e-99 9.14326e-99 5.53895e-98 3.31012e-97 1.95109e-96 1.1341e-95 6.49971e-95 3.67217e-94 2.04484e-93 1.12208e-92 6.06632e-92 3.23061e-91 1.69437e-90 8.75001e-90 4.44827e-89 2.22566e-88 1.09576e-87 5.30716e-87 2.52808e-86 1.18413e-85 5.45222e-85 2.46721e-84 1.09693e-83 4.79043e-83 2.05434e-82 8.64859e-82 3.57327e-81 1.44844e-80 5.75857e-80 2.24475e-79 8.57663e-79 3.21079e-78 1.17734e-77 4.22701e-77 1.48539e-76 5.10696e-76 1.71722e-75 5.64494e-75 1.81336e-74 5.69e-74 1.74325e-73 5.21235e-73 1.52032e-72 4.32376e-72 1.19842e-71 3.23568e-71 8.50584e-71 2.17594e-70 5.41422e-70 1.30966e-69 3.07819e-69 7.02614e-69 1.55668e-68 3.34598e-68 6.97373e-68 1.40867e-67 2.75644e-67 5.22252e-67 9.57667e-67 1.69893e-66 2.91475e-66 4.83452e-66 7.75017e-66 1.20056e-65 1.79685e-65 2.59817e-65 3.62968e-65 4.89978e-65 6.39309e-65 8.06593e-65 9.84622e-65 1.1639e-64 1.33372e-64 1.48368e-64 1.60527e-64 1.69321e-64 1.7463e-64 1.76746e-64 1.76309e-64 1.74187e-64 1.71327e-64 1.6861e-64 1.66743e-64 1.66189e-64 1.67152e-64 1.69594e-64 1.73287e-64 1.7787e-64 1.8292e-64 1.88013e-64 1.92785e-64 1.96969e-64 2.00425e-64 2.03131e-64 2.05171e-64 2.06696e-64 2.07888e-64 2.08931e-64 2.09994e-64 2.11224e-64 2.12747e-64 2.14668e-64 2.17051e-64 2.19909e-64 2.23168e-64 2.26654e-64 2.30087e-64 2.33104e-64 2.35308e-64 2.36332e-64 2.35903e-64 2.33901e-64 2.3038e-64 2.25565e-64 2.1981e-64 2.13546e-64 2.07217e-64 2.01221e-64 1.95869e-64 1.91352e-64 1.87726e-64 1.84911e-64 1.82701e-64 1.8079e-64 1.78806e-64 1.76369e-64 1.73148e-64 1.68927e-64 1.63666e-64 1.57531e-64 1.50902e-64 1.44328e-64 1.3846e-64 1.33942e-64 1.31312e-64 1.30905e-64 1.32793e-64 1.36772e-64 1.42382e-64 1.48984e-64 1.55845e-64 1.62245e-64 1.67578e-64 1.7142e-64 1.73576e-64 1.74085e-64 1.7319e-64 1.71289e-64 1.68864e-64 1.66412e-64 1.64381e-64 1.63125e-64 1.62867e-64 1.6369e-64 1.65539e-64 1.68225e-64 1.71445e-64 1.74798e-64 1.77812e-64 1.79977e-64 1.8079e-64 1.79811e-64 1.76719e-64 1.71351e-64 1.63731e-64 1.54056e-64 1.42663e-64 1.2998e-64 1.16474e-64 1.02603e-64 8.87908e-65 7.54111e-65 6.27816e-65 5.11615e-65 4.07477e-65 3.16693e-65 2.3983e-65 1.76727e-65 1.26566e-65 8.80054e-66 5.93639e-66 3.88224e-66 2.4603e-66 1.51047e-66 8.98212e-67 5.17332e-67 2.88609e-67 1.55977e-67 8.16803e-68 4.14571e-68 2.04008e-68 9.73695e-69 4.50918e-69 2.027e-69 8.84885e-70 3.75311e-70 1.54728e-70 6.20336e-71 2.41974e-71 9.18754e-72 3.39722e-72 1.22389e-72 4.29795e-73 1.47188e-73 4.91784e-74 1.60382e-74 5.10742e-75 1.58891e-75 4.83086e-76 1.436e-76 4.17502e-77 1.18769e-77 3.30714e-78 9.01703e-79 2.40819e-79 6.30208e-80 1.61655e-80 4.06583e-81 1.003e-81 2.42763e-82 5.76664e-83 1.34477e-83 3.07955e-84 6.92715e-85 1.53087e-85 3.31925e-86 6.79306e-87 0 
0 6.60832e-122 5.62092e-121 4.66937e-120 3.83872e-119 3.12343e-118 2.51508e-117 2.00404e-116 1.57996e-115 1.23235e-114 9.50861e-114 7.25694e-113 5.47766e-112 4.08878e-111 3.01787e-110 2.20224e-109 1.58868e-108 1.13282e-107 7.98339e-107 5.55981e-106 3.8258e-105 2.60088e-104 1.7466e-103 1.15846e-102 7.58802e-102 4.90758e-101 3.13356e-100 1.97503e-99 1.22859e-98 7.5418e-98 4.56776e-97 2.72912e-96 1.60827e-95 9.34633e-95 5.35537e-94 3.02501e-93 1.68412e-92 9.23946e-92 4.99416e-91 2.6591e-90 1.39436e-89 7.19932e-89 3.65925e-88 1.83055e-87 9.01074e-87 4.36343e-86 2.07818e-85 9.73232e-85 4.48044e-84 2.02714e-83 9.01133e-83 3.93477e-82 1.68715e-81 7.10172e-81 2.93376e-80 1.18906e-79 4.72673e-79 1.8423e-78 7.03814e-78 2.63454e-77 9.65936e-77 3.46764e-76 1.21843e-75 4.18871e-75 1.40834e-74 4.62919e-74 1.48695e-73 4.66546e-73 1.42927e-72 4.27328e-72 1.24635e-71 3.54441e-71 9.82364e-71 2.65224e-70 6.97187e-70 1.78348e-69 4.43757e-69 1.0734e-68 2.52284e-68 5.75845e-68 1.27581e-67 2.74225e-67 5.71542e-67 1.1545e-66 2.25909e-66 4.28022e-66 7.84881e-66 1.39241e-65 2.3889e-65 3.96234e-65 6.35204e-65 9.83987e-65 1.47272e-64 2.1295e-64 2.97496e-64 4.01599e-64 5.23998e-64 6.61115e-64 8.07044e-64 9.54001e-64 1.09322e-63 1.21618e-63 1.3159e-63 1.38806e-63 1.43167e-63 1.44912e-63 1.44566e-63 1.42838e-63 1.40504e-63 1.38285e-63 1.3676e-63 1.36308e-63 1.37095e-63 1.39092e-63 1.42112e-63 1.45859e-63 1.49989e-63 1.54154e-63 1.58057e-63 1.61481e-63 1.64308e-63 1.66524e-63 1.68195e-63 1.69445e-63 1.70424e-63 1.7128e-63 1.72152e-63 1.73161e-63 1.74409e-63 1.7598e-63 1.77929e-63 1.80265e-63 1.82928e-63 1.85775e-63 1.88579e-63 1.91043e-63 1.92843e-63 1.93677e-63 1.93324e-63 1.91686e-63 1.88807e-63 1.8487e-63 1.80165e-63 1.75044e-63 1.69869e-63 1.64968e-63 1.60593e-63 1.56901e-63 1.53938e-63 1.51636e-63 1.49829e-63 1.48265e-63 1.46641e-63 1.44645e-63 1.42005e-63 1.38548e-63 1.34238e-63 1.29213e-63 1.23784e-63 1.18401e-63 1.13595e-63 1.09895e-63 1.0774e-63 1.07405e-63 1.0895e-63 1.12205e-63 1.16797e-63 1.22201e-63 1.27818e-63 1.33059e-63 1.37428e-63 1.40577e-63 1.42346e-63 1.42768e-63 1.42041e-63 1.40489e-63 1.38508e-63 1.36504e-63 1.34843e-63 1.33815e-63 1.33602e-63 1.34273e-63 1.35783e-63 1.37977e-63 1.40608e-63 1.43348e-63 1.45811e-63 1.4758e-63 1.48243e-63 1.47441e-63 1.44909e-63 1.40516e-63 1.34279e-63 1.26359e-63 1.17031e-63 1.06645e-63 9.55808e-64 8.42145e-64 7.28925e-64 6.1921e-64 5.15608e-64 4.20253e-64 3.34769e-64 2.60224e-64 1.97093e-64 1.45252e-64 1.04036e-64 7.23459e-65 4.88044e-65 3.19188e-65 2.02291e-65 1.24199e-65 7.38584e-66 4.25406e-66 2.3733e-66 1.28266e-66 6.71701e-67 3.40929e-67 1.67772e-67 8.00756e-68 3.70835e-68 1.66703e-68 7.27753e-69 3.08672e-69 1.27258e-69 5.10217e-70 1.99026e-70 7.5571e-71 2.79445e-71 1.00678e-71 3.53569e-72 1.2109e-72 4.04608e-73 1.3196e-73 4.2026e-74 1.30751e-74 3.97563e-75 1.18188e-75 3.43648e-76 9.77688e-77 2.72265e-77 7.42417e-78 1.983e-78 5.18996e-79 1.33144e-79 3.34915e-80 8.26309e-81 2.00024e-81 4.75204e-82 1.10833e-82 2.53845e-83 5.71086e-84 1.26227e-84 2.7373e-85 5.60289e-86 0 
0 5.4333e-121 4.62021e-120 3.837e-119 3.15356e-118 2.56523e-117 2.06504e-116 1.64499e-115 1.29654e-114 1.01101e-113 7.79872e-113 5.95038e-112 4.49026e-111 3.35086e-110 2.47258e-109 1.80386e-108 1.30095e-107 9.27421e-107 6.53421e-106 4.54943e-105 3.12977e-104 2.12717e-103 1.42814e-102 9.47011e-102 6.2015e-101 4.0099e-100 2.55978e-99 1.61301e-98 1.00317e-97 6.1566e-97 3.72797e-96 2.22688e-95 1.31202e-94 7.62302e-94 4.367e-93 2.46621e-92 1.37274e-91 7.52962e-91 4.06914e-90 2.16616e-89 1.13566e-88 5.86249e-88 2.97922e-87 1.49009e-86 7.33357e-86 3.55066e-85 1.69079e-84 7.91684e-84 3.64407e-83 1.64847e-82 7.32691e-82 3.1988e-81 1.37138e-80 5.77179e-80 2.38404e-79 9.6613e-79 3.84009e-78 1.49654e-77 5.7166e-77 2.13963e-76 7.844e-76 2.81566e-75 9.89251e-75 3.40056e-74 1.14325e-73 3.75757e-73 1.20689e-72 3.7865e-72 1.15993e-71 3.46782e-71 1.01138e-70 2.87608e-70 7.971e-70 2.15198e-69 5.65672e-69 1.44702e-68 3.60034e-68 8.7087e-68 2.04681e-67 4.67189e-67 1.03508e-66 2.22482e-66 4.637e-66 9.36668e-66 1.83286e-65 3.4727e-65 6.3681e-65 1.12974e-64 1.93827e-64 3.21495e-64 5.15396e-64 7.98402e-64 1.19497e-63 1.7279e-63 2.41393e-63 3.25866e-63 4.25187e-63 5.36453e-63 6.54874e-63 7.74134e-63 8.87125e-63 9.86932e-63 1.0679e-62 1.12652e-62 1.16198e-62 1.17623e-62 1.17352e-62 1.15959e-62 1.14073e-62 1.12279e-62 1.11046e-62 1.1068e-62 1.11317e-62 1.12934e-62 1.15378e-62 1.18412e-62 1.21755e-62 1.25128e-62 1.28288e-62 1.3106e-62 1.33351e-62 1.35146e-62 1.36502e-62 1.37516e-62 1.38311e-62 1.39007e-62 1.39716e-62 1.40534e-62 1.41546e-62 1.42819e-62 1.44397e-62 1.46287e-62 1.48441e-62 1.50743e-62 1.53011e-62 1.55002e-62 1.56457e-62 1.5713e-62 1.56843e-62 1.55515e-62 1.53185e-62 1.49998e-62 1.4619e-62 1.42045e-62 1.37858e-62 1.33892e-62 1.30352e-62 1.27365e-62 1.24966e-62 1.23104e-62 1.21642e-62 1.20375e-62 1.19058e-62 1.17439e-62 1.15299e-62 1.12495e-62 1.09e-62 1.04926e-62 1.00524e-62 9.616e-63 9.22637e-63 8.92639e-63 8.75164e-63 8.72436e-63 8.8494e-63 9.11312e-63 9.4852e-63 9.92311e-63 1.03783e-62 1.08032e-62 1.11574e-62 1.14129e-62 1.15567e-62 1.15913e-62 1.15328e-62 1.14074e-62 1.12472e-62 1.1085e-62 1.09506e-62 1.08673e-62 1.08499e-62 1.09041e-62 1.10261e-62 1.12036e-62 1.14164e-62 1.1638e-62 1.18373e-62 1.19803e-62 1.20338e-62 1.19687e-62 1.17636e-62 1.14076e-62 1.09023e-62 1.02605e-62 9.50443e-63 8.66241e-63 7.76519e-63 6.84314e-63 5.92436e-63 5.03368e-63 4.19231e-63 3.41764e-63 2.72292e-63 2.11692e-63 1.60358e-63 1.18194e-63 8.46644e-64 5.88803e-64 3.97235e-64 2.59814e-64 1.6467e-64 1.01105e-64 6.01268e-65 3.46324e-65 1.93215e-65 1.04426e-65 5.46859e-66 2.77567e-66 1.36592e-66 6.51944e-67 3.01922e-67 1.35726e-67 5.92525e-68 2.51319e-68 1.03615e-68 4.15432e-69 1.62056e-69 6.1535e-70 2.2755e-70 8.19846e-71 2.87931e-71 9.86151e-72 3.29527e-72 1.07479e-72 3.42315e-73 1.06508e-73 3.23873e-74 9.62884e-75 2.79996e-75 7.96666e-76 2.21875e-76 6.05072e-77 1.61631e-77 4.23073e-78 1.08548e-78 2.73077e-79 6.73825e-80 1.63133e-80 3.87612e-81 9.04159e-82 2.07113e-82 4.66019e-83 1.0302e-83 2.23437e-84 4.57413e-85 0 
0 4.42126e-120 3.7586e-119 3.12058e-118 2.56404e-117 2.08512e-116 1.67809e-115 1.33639e-114 1.05303e-113 8.20903e-113 6.33059e-112 4.82893e-111 3.64305e-110 2.71792e-109 2.00502e-108 1.46238e-107 1.05441e-106 7.51472e-106 5.29323e-105 3.68448e-104 2.53411e-103 1.72191e-102 1.15577e-101 7.6622e-101 5.0164e-100 3.24286e-99 2.06964e-98 1.30386e-97 8.10715e-97 4.97439e-96 3.01145e-95 1.79847e-94 1.05939e-93 6.15389e-93 3.52465e-92 1.99009e-91 1.1075e-90 6.07354e-90 3.28161e-89 1.74659e-88 9.15516e-88 4.72521e-87 2.40084e-86 1.2006e-85 5.90778e-85 2.85986e-84 1.36161e-83 6.3745e-83 2.93368e-82 1.32691e-81 5.89683e-81 2.57409e-80 1.10341e-79 4.64332e-79 1.91768e-78 7.77043e-78 3.08816e-77 1.20337e-76 4.59622e-76 1.72011e-75 6.30543e-75 2.26318e-74 7.95073e-74 2.73285e-73 9.18703e-73 3.01933e-72 9.69714e-72 3.04222e-71 9.31884e-71 2.7859e-70 8.12466e-70 2.31035e-69 6.40289e-69 1.72859e-68 4.54369e-68 1.16228e-67 2.89186e-67 6.99494e-67 1.64402e-66 3.75253e-66 8.31394e-66 1.78703e-65 3.7246e-65 7.52375e-65 1.47226e-64 2.78953e-64 5.11541e-64 9.07523e-64 1.55704e-63 2.58267e-63 4.14039e-63 6.41399e-63 9.59993e-63 1.38815e-62 1.93931e-62 2.61798e-62 3.41595e-62 4.3099e-62 5.26136e-62 6.21962e-62 7.12759e-62 7.92972e-62 8.58059e-62 9.05206e-62 9.33761e-62 9.45281e-62 9.43175e-62 9.32062e-62 9.16978e-62 9.02618e-62 8.92739e-62 8.89812e-62 8.94921e-62 9.07876e-62 9.27465e-62 9.51779e-62 9.78572e-62 1.0056e-61 1.03094e-61 1.05316e-61 1.07153e-61 1.08594e-61 1.09682e-61 1.10498e-61 1.11137e-61 1.11697e-61 1.12267e-61 1.12925e-61 1.13737e-61 1.14758e-61 1.16022e-61 1.17536e-61 1.19261e-61 1.21105e-61 1.22919e-61 1.24514e-61 1.25677e-61 1.26215e-61 1.25983e-61 1.24919e-61 1.23051e-61 1.20497e-61 1.17445e-61 1.14125e-61 1.1077e-61 1.07593e-61 1.04757e-61 1.02364e-61 1.00443e-61 9.89511e-62 9.77791e-62 9.67632e-62 9.57068e-62 9.4407e-62 9.26881e-62 9.04366e-62 8.76309e-62 8.43607e-62 8.08274e-62 7.73245e-62 7.41972e-62 7.17893e-62 7.03861e-62 7.01662e-62 7.11685e-62 7.32835e-62 7.62683e-62 7.97817e-62 8.34345e-62 8.68446e-62 8.96884e-62 9.17408e-62 9.28974e-62 9.3178e-62 9.27118e-62 9.17094e-62 9.04265e-62 8.91272e-62 8.80496e-62 8.7381e-62 8.72408e-62 8.76739e-62 8.86503e-62 9.0071e-62 9.17751e-62 9.35504e-62 9.51461e-62 9.62914e-62 9.67196e-62 9.61965e-62 9.45505e-62 9.16953e-62 8.76414e-62 8.2492e-62 7.6425e-62 6.96664e-62 6.24626e-62 5.5057e-62 4.76749e-62 4.05158e-62 3.37505e-62 2.75192e-62 2.19292e-62 1.70515e-62 1.29183e-62 9.52282e-63 6.82209e-63 4.74488e-63 3.20137e-63 2.09399e-63 1.32723e-63 8.14935e-64 4.84654e-64 2.79161e-64 1.55747e-64 8.41763e-65 4.4082e-65 2.23746e-65 1.10107e-65 5.25532e-66 2.4338e-66 1.09409e-66 4.7764e-67 2.02592e-67 8.35264e-68 3.34894e-68 1.30641e-68 4.96073e-69 1.83448e-69 6.60968e-70 2.32141e-70 7.95104e-71 2.657e-71 8.66652e-72 2.7604e-72 8.58925e-73 2.61201e-73 7.76613e-74 2.25848e-74 6.42652e-75 1.78997e-75 4.88185e-76 1.3042e-76 3.41413e-77 8.76056e-78 2.20417e-78 5.4395e-79 1.31706e-79 3.12981e-80 7.30168e-81 1.6728e-81 3.76445e-82 8.32304e-83 1.80544e-83 3.69654e-84 0 
0 3.56037e-119 3.02593e-118 2.51159e-117 2.0631e-116 1.67729e-115 1.3495e-114 1.07442e-113 8.46378e-113 6.59632e-112 5.08557e-111 3.87822e-110 2.92505e-109 2.18169e-108 1.60903e-107 1.17326e-106 8.45732e-106 6.026e-105 4.24355e-104 2.9531e-103 2.03058e-102 1.37943e-101 9.25676e-101 6.13532e-100 4.01582e-99 2.59543e-98 1.65607e-97 1.04307e-96 6.48418e-96 3.97769e-95 2.40753e-94 1.4375e-93 8.46574e-93 4.91666e-92 2.81544e-91 1.58934e-90 8.843e-90 4.84857e-89 2.61924e-88 1.39379e-87 7.30454e-87 3.76938e-86 1.91485e-85 9.574e-85 4.71029e-84 2.2798e-83 1.08526e-82 5.07996e-82 2.33755e-81 1.05713e-80 4.69723e-80 2.05015e-79 8.78701e-79 3.69726e-78 1.52677e-77 6.18574e-77 2.45809e-76 9.57746e-76 3.6577e-75 1.36874e-74 5.01696e-74 1.80056e-73 6.32503e-73 2.1739e-72 7.30751e-72 2.40147e-71 7.71234e-71 2.41942e-70 7.41077e-70 2.21539e-69 6.46064e-69 1.83711e-68 5.09125e-68 1.37446e-67 3.6128e-67 9.24152e-67 2.29937e-66 5.56182e-66 1.3072e-65 2.98376e-65 6.61077e-65 1.42097e-64 2.9617e-64 5.98279e-64 1.17075e-63 2.2183e-63 4.06799e-63 7.21718e-63 1.23828e-62 2.05399e-62 3.29291e-62 5.10122e-62 7.63522e-62 1.10407e-61 1.54246e-61 2.08227e-61 2.71698e-61 3.42806e-61 4.1849e-61 4.94718e-61 5.66952e-61 6.30775e-61 6.82575e-61 7.20115e-61 7.42878e-61 7.52098e-61 7.50483e-61 7.41703e-61 7.29758e-61 7.18377e-61 7.10546e-61 7.08226e-61 7.12279e-61 7.22557e-61 7.38097e-61 7.57388e-61 7.78646e-61 8.00096e-61 8.20199e-61 8.37842e-61 8.52426e-61 8.63869e-61 8.72517e-61 8.79003e-61 8.84092e-61 8.88554e-61 8.93094e-61 8.98327e-61 9.0478e-61 9.12883e-61 9.22915e-61 9.34919e-61 9.48593e-61 9.63206e-61 9.77587e-61 9.90218e-61 9.99432e-61 1.00368e-60 1.00184e-60 9.9339e-61 9.78565e-61 9.58305e-61 9.341e-61 9.07762e-61 8.81153e-61 8.55954e-61 8.33465e-61 8.14488e-61 7.99255e-61 7.87425e-61 7.78128e-61 7.70064e-61 7.61672e-61 7.51342e-61 7.37679e-61 7.19783e-61 6.97484e-61 6.71496e-61 6.4342e-61 6.15586e-61 5.90737e-61 5.71602e-61 5.60448e-61 5.58693e-61 5.66647e-61 5.8344e-61 6.07143e-61 6.35048e-61 6.64065e-61 6.9116e-61 7.13762e-61 7.30084e-61 7.39294e-61 7.41548e-61 7.37872e-61 7.29934e-61 7.19766e-61 7.0946e-61 7.0091e-61 6.956e-61 6.94479e-61 6.97904e-61 7.0564e-61 7.169e-61 7.3041e-61 7.44485e-61 7.57137e-61 7.66216e-61 7.69605e-61 7.65445e-61 7.52372e-61 7.29698e-61 6.97504e-61 6.56603e-61 6.08405e-61 5.547e-61 4.97439e-61 4.38554e-61 3.79833e-61 3.22865e-61 2.69009e-61 2.19385e-61 1.74852e-61 1.35982e-61 1.03036e-61 7.59628e-62 5.4425e-62 3.78569e-62 2.55439e-62 1.67091e-62 1.05912e-62 6.50332e-63 3.86771e-63 2.22784e-63 1.24295e-63 6.71779e-64 3.51802e-64 1.78563e-64 8.78717e-65 4.19404e-65 1.9423e-65 8.7314e-66 3.8118e-66 1.61679e-66 6.66583e-67 2.67264e-67 1.0426e-67 3.95904e-68 1.46408e-68 5.27524e-69 1.85279e-69 6.34617e-70 2.12078e-70 6.9178e-71 2.20352e-71 6.85683e-72 2.0853e-72 6.2005e-73 1.8033e-73 5.1317e-74 1.42944e-74 3.8989e-75 1.0417e-75 2.72722e-76 6.99869e-77 1.76107e-77 4.34649e-78 1.05254e-78 2.50151e-79 5.83663e-80 1.33734e-80 3.00994e-81 6.65579e-82 1.44398e-82 2.95689e-83 0 
0 2.83707e-118 2.41056e-117 2.00027e-116 1.64263e-115 1.33509e-114 1.07389e-113 8.5476e-113 6.73162e-112 5.24496e-111 4.04265e-110 3.0821e-109 2.32399e-108 1.73294e-107 1.27774e-106 9.31457e-106 6.71264e-105 4.7817e-104 3.36647e-103 2.34217e-102 1.61011e-101 1.09353e-100 7.33648e-100 4.86143e-99 3.18127e-98 2.05559e-97 1.31131e-96 8.25745e-96 5.13204e-95 3.14754e-94 1.90466e-93 1.137e-92 6.69467e-92 3.88727e-91 2.22553e-90 1.25608e-89 6.9874e-89 3.83042e-88 2.06884e-87 1.1007e-86 5.76746e-86 2.97567e-85 1.51138e-84 7.55545e-84 3.71657e-83 1.79855e-82 8.56039e-82 4.00639e-81 1.84328e-80 8.33478e-80 3.70296e-79 1.61598e-78 6.92525e-78 2.91354e-77 1.203e-76 4.87342e-76 1.93639e-75 7.54402e-75 2.88084e-74 1.07794e-73 3.95072e-73 1.41778e-72 4.98003e-72 1.71151e-71 5.75286e-71 1.89046e-70 6.07093e-70 1.90441e-69 5.83308e-69 1.7437e-68 5.08493e-68 1.44589e-67 4.007e-67 1.08174e-66 2.84337e-66 7.27332e-66 1.80967e-65 4.37736e-65 1.02883e-64 2.34841e-64 5.2032e-64 1.11844e-63 2.33121e-63 4.7093e-63 9.21572e-63 1.74622e-62 3.20237e-62 5.68161e-62 9.74847e-62 1.61706e-61 2.5925e-61 4.01627e-61 6.01145e-61 8.69283e-61 1.21446e-60 1.63951e-60 2.13929e-60 2.69921e-60 3.29519e-60 3.89548e-60 4.46435e-60 4.96706e-60 5.37517e-60 5.67108e-60 5.8507e-60 5.92373e-60 5.91149e-60 5.84282e-60 5.74918e-60 5.6599e-60 5.59844e-60 5.58023e-60 5.61206e-60 5.69277e-60 5.81481e-60 5.96631e-60 6.13328e-60 6.30175e-60 6.45967e-60 6.59829e-60 6.7129e-60 6.80286e-60 6.8709e-60 6.92197e-60 6.96207e-60 6.99726e-60 7.03304e-60 7.07424e-60 7.125e-60 7.18867e-60 7.26745e-60 7.36168e-60 7.46898e-60 7.58363e-60 7.69644e-60 7.7955e-60 7.86773e-60 7.90103e-60 7.88646e-60 7.82006e-60 7.70362e-60 7.54451e-60 7.35446e-60 7.14767e-60 6.93876e-60 6.74093e-60 6.56439e-60 6.41543e-60 6.29587e-60 6.20301e-60 6.13e-60 6.06665e-60 6.00066e-60 5.91939e-60 5.81189e-60 5.67109e-60 5.49566e-60 5.29123e-60 5.07038e-60 4.85145e-60 4.656e-60 4.50548e-60 4.41772e-60 4.40385e-60 4.46633e-60 4.59831e-60 4.78464e-60 5.00404e-60 5.23222e-60 5.44532e-60 5.62315e-60 5.75163e-60 5.82422e-60 5.84215e-60 5.81345e-60 5.75124e-60 5.67145e-60 5.59054e-60 5.52338e-60 5.48163e-60 5.47276e-60 5.49958e-60 5.56024e-60 5.64859e-60 5.7546e-60 5.86507e-60 5.96437e-60 6.03562e-60 6.06217e-60 6.02942e-60 5.92664e-60 5.7484e-60 5.49531e-60 5.17374e-60 4.79471e-60 4.37226e-60 3.9217e-60 3.4582e-60 2.99582e-60 2.54705e-60 2.12263e-60 1.73142e-60 1.38021e-60 1.07356e-60 8.13574e-61 5.9988e-61 4.29841e-61 2.99015e-61 2.01774e-61 1.31995e-61 8.36696e-62 5.13773e-62 3.05562e-62 1.7601e-62 9.81992e-63 5.30738e-63 2.77939e-63 1.41072e-63 6.94214e-64 3.31339e-64 1.53444e-64 6.89786e-65 3.01131e-65 1.27725e-65 5.26594e-66 2.11136e-66 8.23644e-67 3.12763e-67 1.15663e-67 4.16754e-68 1.46377e-68 5.01383e-69 1.67559e-69 5.46581e-70 1.74109e-70 5.41812e-71 1.64785e-71 4.90005e-72 1.42518e-72 4.05595e-73 1.12987e-73 3.08206e-74 8.23531e-75 2.15623e-75 5.53394e-76 1.39264e-76 3.43754e-77 8.32519e-78 1.97884e-78 4.61768e-79 1.05818e-79 2.38194e-80 5.26784e-81 1.14303e-81 2.34092e-82 0 
0 2.23679e-117 1.90002e-116 1.5762e-115 1.29403e-114 1.05147e-113 8.45534e-113 6.72821e-112 5.29737e-111 4.12638e-110 3.17966e-109 2.42353e-108 1.82694e-107 1.36195e-106 1.00395e-105 7.31685e-105 5.27165e-104 3.75429e-103 2.6425e-102 1.83803e-101 1.26324e-100 8.57749e-100 5.75326e-99 3.81145e-98 2.4936e-97 1.61088e-96 1.02739e-95 6.46816e-95 4.01912e-94 2.46444e-93 1.49098e-92 8.89869e-92 5.23846e-91 3.04111e-90 1.74074e-89 9.82274e-89 5.4632e-88 2.99431e-87 1.61695e-86 8.60121e-86 4.50608e-85 2.32447e-84 1.18043e-83 5.90004e-83 2.9018e-82 1.40404e-81 6.68167e-81 3.12666e-80 1.43832e-79 6.5028e-79 2.88867e-78 1.26046e-77 5.40103e-77 2.27202e-76 9.38008e-76 3.79953e-75 1.50954e-74 5.88049e-74 2.24539e-73 8.40099e-73 3.07878e-72 1.10479e-71 3.88039e-71 1.33351e-70 4.48206e-70 1.47279e-69 4.72945e-69 1.48355e-68 4.54385e-68 1.35828e-67 3.9609e-67 1.12626e-66 3.12119e-66 8.42603e-66 2.2148e-65 5.6655e-65 1.40965e-64 3.40983e-64 8.01447e-64 1.82942e-63 4.05344e-63 8.71325e-63 1.81619e-62 3.66905e-62 7.18029e-62 1.36059e-61 2.49526e-61 4.42722e-61 7.59647e-61 1.26013e-60 2.02032e-60 3.12995e-60 4.68493e-60 6.77477e-60 9.46513e-60 1.2778e-59 1.66734e-59 2.10377e-59 2.56831e-59 3.03624e-59 3.47971e-59 3.87166e-59 4.18992e-59 4.42079e-59 4.56109e-59 4.61836e-59 4.60918e-59 4.55602e-59 4.48336e-59 4.41402e-59 4.36628e-59 4.35213e-59 4.37687e-59 4.4396e-59 4.53446e-59 4.65223e-59 4.78202e-59 4.913e-59 5.03578e-59 5.14358e-59 5.23273e-59 5.30274e-59 5.35571e-59 5.39551e-59 5.42679e-59 5.45425e-59 5.48216e-59 5.51428e-59 5.55379e-59 5.60331e-59 5.66455e-59 5.73775e-59 5.82109e-59 5.91012e-59 5.9977e-59 6.0746e-59 6.13065e-59 6.15646e-59 6.14507e-59 6.09342e-59 6.0029e-59 5.87923e-59 5.73153e-59 5.57082e-59 5.40849e-59 5.25477e-59 5.1176e-59 5.00187e-59 4.90898e-59 4.83684e-59 4.7801e-59 4.73084e-59 4.67948e-59 4.6162e-59 4.53249e-59 4.42284e-59 4.28624e-59 4.12706e-59 3.95512e-59 3.78468e-59 3.63251e-59 3.51531e-59 3.44696e-59 3.43612e-59 3.48469e-59 3.58737e-59 3.73236e-59 3.9031e-59 4.08069e-59 4.24659e-59 4.38507e-59 4.48517e-59 4.54181e-59 4.55592e-59 4.53374e-59 4.48547e-59 4.42351e-59 4.36063e-59 4.30841e-59 4.27593e-59 4.26898e-59 4.28976e-59 4.33685e-59 4.40545e-59 4.4878e-59 4.57362e-59 4.65076e-59 4.7061e-59 4.72669e-59 4.70118e-59 4.6212e-59 4.48252e-59 4.28558e-59 4.03532e-59 3.74029e-59 3.41137e-59 3.06046e-59 2.69933e-59 2.33894e-59 1.98901e-59 1.65794e-59 1.35264e-59 1.07847e-59 8.38999e-60 6.35911e-60 4.68941e-60 3.36054e-60 2.33793e-60 1.57774e-60 1.03217e-60 6.54303e-61 4.01787e-61 2.38963e-61 1.37648e-61 7.67968e-62 4.15062e-62 2.17359e-62 1.10322e-62 5.42886e-63 2.59107e-63 1.19991e-63 5.39394e-64 2.35473e-64 9.98746e-65 4.11766e-65 1.65094e-65 6.44033e-66 2.44559e-66 9.04407e-67 3.25876e-67 1.14459e-67 3.92063e-68 1.31028e-68 4.2743e-69 1.36159e-69 4.23732e-70 1.28878e-70 3.83252e-71 1.11476e-71 3.1727e-72 8.83887e-73 2.41124e-73 6.44337e-74 1.6872e-74 4.33057e-75 1.08991e-75 2.69056e-76 6.51683e-77 1.54918e-77 3.61547e-78 8.28614e-79 1.86544e-79 4.1261e-80 8.9541e-81 1.83404e-81 0 
0 1.74469e-116 1.48161e-115 1.22877e-114 1.00853e-113 8.19266e-113 6.5863e-112 5.23957e-111 4.12423e-110 3.21172e-109 2.47421e-108 1.88535e-107 1.42089e-106 1.05898e-105 7.80419e-105 5.68633e-104 4.09588e-103 2.91624e-102 2.05213e-101 1.42705e-100 9.80552e-100 6.65643e-99 4.4637e-98 2.95645e-97 1.93379e-96 1.24896e-95 7.9639e-95 5.01274e-94 3.11409e-93 1.90909e-92 1.15476e-91 6.89056e-91 4.0555e-90 2.35389e-89 1.34711e-88 7.60008e-88 4.22621e-87 2.3159e-86 1.25038e-85 6.6501e-85 3.48331e-84 1.79657e-83 9.12198e-83 4.55862e-82 2.24171e-81 1.08449e-80 5.16021e-80 2.41435e-79 1.1105e-78 5.02e-78 2.2297e-77 9.72805e-77 4.16794e-76 1.75311e-75 7.23698e-75 2.93114e-74 1.16443e-73 4.53567e-73 1.73174e-72 6.47872e-72 2.37414e-71 8.51884e-71 2.99192e-70 1.02813e-69 3.45549e-69 1.13542e-68 3.64595e-68 1.14364e-67 3.5027e-67 1.04703e-66 3.05324e-66 8.68171e-66 2.40595e-65 6.4952e-65 1.7073e-64 4.36738e-64 1.08669e-63 2.62867e-63 6.17863e-63 1.41041e-62 3.12516e-62 6.7181e-62 1.40038e-61 2.82915e-61 5.53686e-61 1.04922e-60 1.92431e-60 3.41436e-60 5.85878e-60 9.71911e-60 1.55829e-59 2.41423e-59 3.61374e-59 5.22587e-59 7.30129e-59 9.85698e-59 1.28621e-58 1.6229e-58 1.98129e-58 2.34231e-58 2.68449e-58 2.98695e-58 3.23261e-58 3.41089e-58 3.51935e-58 3.56379e-58 3.55699e-58 3.51626e-58 3.46045e-58 3.40716e-58 3.37044e-58 3.35956e-58 3.37859e-58 3.42685e-58 3.49982e-58 3.59042e-58 3.69028e-58 3.79105e-58 3.88554e-58 3.9685e-58 4.03713e-58 4.09104e-58 4.13186e-58 4.16256e-58 4.18671e-58 4.20791e-58 4.22947e-58 4.25423e-58 4.28468e-58 4.3228e-58 4.3699e-58 4.42619e-58 4.49025e-58 4.55867e-58 4.62597e-58 4.68505e-58 4.7281e-58 4.74788e-58 4.73908e-58 4.69932e-58 4.62967e-58 4.53454e-58 4.42093e-58 4.29733e-58 4.17249e-58 4.05427e-58 3.9488e-58 3.85981e-58 3.78839e-58 3.73292e-58 3.68929e-58 3.65137e-58 3.61182e-58 3.56306e-58 3.49854e-58 3.41403e-58 3.30876e-58 3.1861e-58 3.05361e-58 2.92228e-58 2.80502e-58 2.71471e-58 2.66203e-58 2.65364e-58 2.69102e-58 2.77007e-58 2.88173e-58 3.01323e-58 3.15004e-58 3.27786e-58 3.38459e-58 3.46178e-58 3.50552e-58 3.5165e-58 3.49954e-58 3.46248e-58 3.41485e-58 3.36649e-58 3.3263e-58 3.30128e-58 3.2959e-58 3.31184e-58 3.34801e-58 3.40074e-58 3.46404e-58 3.53002e-58 3.58933e-58 3.63188e-58 3.64769e-58 3.62801e-58 3.56641e-58 3.45962e-58 3.30796e-58 3.11521e-58 2.88791e-58 2.63445e-58 2.36395e-58 2.08547e-58 1.80745e-58 1.53739e-58 1.28177e-58 1.04596e-58 8.34104e-59 6.49006e-59 4.91981e-59 3.62849e-59 2.60054e-59 1.80936e-59 1.22112e-59 7.98907e-60 5.06456e-60 3.11006e-60 1.84974e-60 1.0655e-60 5.94459e-61 3.21283e-61 1.68246e-61 8.53926e-62 4.20201e-62 2.00548e-62 9.28703e-63 4.17467e-63 1.82241e-63 7.72949e-64 3.18667e-64 1.27765e-64 4.98406e-65 1.89258e-65 6.99896e-66 2.52187e-66 8.85774e-67 3.03412e-67 1.01402e-67 3.30794e-68 1.05378e-68 3.27952e-69 9.97504e-70 2.96647e-70 8.62892e-71 2.45601e-71 6.84266e-72 1.8668e-72 4.98888e-73 1.30644e-73 3.35355e-74 8.44094e-75 2.08394e-75 5.04803e-76 1.20014e-76 2.80121e-77 6.42071e-78 1.44566e-78 3.198e-79 6.94093e-80 1.42187e-80 0 