# vtk DataFile Version 3.0
Gray-Scott Simulation Output
ASCII
DATASET STRUCTURED_POINTS
DIMENSIONS 256 256 1
SPACING 1.0 1.0 1.0
ORIGIN 0 0 0
POINT_DATA 65536
SCALARS u double
LOOKUP_TABLE default
0 0 0 0 0 0 0 0 0 0 0 0 0 0 0 0 0 0 0 0 0 0 0 0 0 0 0 0 0 0 0 0 0 0 0 0 0 0 0 0 0 0 0 0 0 0 0 0 0 0 0 0 0 0 0 0 0 0 0 0 0 0 0 0 0 0 0 0 0 0 0 0 0 0 0 0 0 0 0 0 0 0 0 0 0 0 0 0 0 0 0 0 0 0 0 0 0 0 0 0 0 0 0 0 0 0 0 0 0 0 0 0 0 0 0 0 0 0 0 0 0 0 0 0 0 0 0 0 0 0 0 0 0 0 0 0 0 0 0 0 0 0 0 0 0 0 0 0 0 0 0 0 0 0 0 0 0 0 0 0 0 0 0 0 0 0 0 0 0 0 0 0 0 0 0 0 0 0 0 0 0 0 0 0 0 0 0 0 0 0 0 0 0 0 0 0 0 0 0 0 0 0 0 0 0 0 0 0 0 0 0 0 0 0 0 0 0 0 0 0 0 0 0 0 0 0 0 0 0 0 0 0 0 0 0 0 0 0 0 0 0 0 0 0 0 0 0 0 0 0 0 0 0 0 0 0 
0 7.46758e-113 5.31186e-112 3.66936e-111 2.50854e-110 1.69771e-109 1.13731e-108 7.54097e-108 4.94843e-107 3.21334e-106 2.06468e-105 1.31253e-104 8.25435e-104 5.13486e-103 3.15936e-102 1.92241e-101 1.1567e-100 6.88142e-100 4.04728e-99 2.35302e-98 1.35212e-97 7.67847e-97 4.30877e-96 2.38887e-95 1.30839e-94 7.07832e-94 3.7819e-93 1.99534e-92 1.03942e-91 5.34524e-91 2.71319e-90 1.35915e-89 6.71829e-89 3.27632e-88 1.57608e-87 7.47768e-87 3.49844e-86 1.61372e-85 7.33751e-85 3.28821e-84 1.45204e-83 6.3172e-83 2.70715e-82 1.1425e-81 4.74754e-81 1.94204e-80 7.81863e-80 3.09737e-79 1.20712e-78 4.62699e-78 1.74397e-77 6.46198e-77 2.35328e-76 8.4208e-76 2.96e-75 1.02182e-74 3.46328e-74 1.15215e-73 3.76108e-73 1.20442e-72 3.78245e-72 1.16458e-71 3.51426e-71 1.03903e-70 3.00892e-70 8.53181e-70 2.36797e-69 6.43081e-69 1.70829e-68 4.43721e-68 1.12657e-67 2.79477e-67 6.77206e-67 1.60221e-66 3.69984e-66 8.33585e-66 1.83172e-65 3.92421e-65 8.19348e-65 1.66668e-64 3.30176e-64 6.36799e-64 1.19529e-63 2.18285e-63 3.8772e-63 6.69628e-63 1.12423e-62 1.83437e-62 2.9083e-62 4.47963e-62 6.70261e-62 9.74126e-62 1.37515e-61 1.88569e-61 2.51208e-61 3.25189e-61 4.0918e-61 5.00687e-61 5.96145e-61 6.91211e-61 7.81227e-61 8.61797e-61 9.29362e-61 9.8168e-61 1.01812e-60 1.03967e-60 1.04877e-60 1.04885e-60 1.04381e-60 1.03747e-60 1.03312e-60 1.03313e-60 1.03887e-60 1.05065e-60 1.0679e-60 1.08937e-60 1.11343e-60 1.13837e-60 1.16262e-60 1.18493e-60 1.20452e-60 1.2211e-60 1.23478e-60 1.24604e-60 1.25557e-60 1.26415e-60 1.27259e-60 1.28162e-60 1.29183e-60 1.30364e-60 1.31719e-60 1.33232e-60 1.34847e-60 1.36473e-60 1.37982e-60 1.39222e-60 1.40039e-60 1.40296e-60 1.39896e-60 1.38798e-60 1.37027e-60 1.34674e-60 1.31879e-60 1.28819e-60 1.25677e-60 1.22625e-60 1.198e-60 1.17287e-60 1.15113e-60 1.13245e-60 1.11596e-60 1.10039e-60 1.08425e-60 1.06609e-60 1.04475e-60 1.01963e-60 9.9087e-61 9.59412e-61 9.27001e-61 8.95979e-61 8.68989e-61 8.48593e-61 8.36876e-61 8.35107e-61 8.43515e-61 8.61217e-61 8.86323e-61 9.16181e-61 9.47741e-61 9.77957e-61 1.00417e-60 1.02444e-60 1.03772e-60 1.04392e-60 1.04384e-60 1.03897e-60 1.03126e-60 1.0228e-60 1.01557e-60 1.01117e-60 1.01069e-60 1.01458e-60 1.02263e-60 1.03395e-60 1.04709e-60 1.06012e-60 1.07081e-60 1.07678e-60 1.07577e-60 1.06583e-60 1.04551e-60 1.01406e-60 9.7145e-61 9.18403e-61 8.56261e-61 7.86852e-61 7.12301e-61 6.34861e-61 5.56756e-61 4.80071e-61 4.06663e-61 3.38101e-61 2.75615e-61 2.20067e-61 1.71934e-61 1.31309e-61 9.79416e-62 7.12901e-62 5.06033e-62 3.50078e-62 2.35929e-62 1.54836e-62 9.8929e-63 6.15263e-63 3.72429e-63 2.19414e-63 1.25818e-63 7.02293e-64 3.81643e-64 2.01948e-64 1.04078e-64 5.2254e-65 2.55649e-65 1.21914e-65 5.66867e-66 2.57078e-66 1.13748e-66 4.91207e-67 2.07096e-67 8.52731e-68 3.43033e-68 1.34862e-68 5.18345e-69 1.94838e-69 7.16469e-70 2.5783e-70 9.08294e-71 3.13338e-71 1.05885e-71 3.50608e-72 1.13792e-72 3.62104e-73 1.1301e-73 3.46006e-74 1.03959e-74 3.06598e-75 8.87819e-76 2.52489e-76 7.05403e-77 1.9365e-77 5.22509e-78 1.386e-78 3.61452e-79 9.24116e-80 2.19895e-80 0 
0 5.30882e-112 3.77561e-111 2.60766e-110 1.78239e-109 1.20605e-108 8.07798e-108 5.35518e-107 3.51349e-106 2.28114e-105 1.46546e-104 9.31444e-104 5.85677e-103 3.64277e-102 2.24095e-101 1.36336e-100 8.20195e-100 4.87871e-99 2.86896e-98 1.66771e-97 9.58177e-97 5.44055e-96 3.05252e-95 1.69215e-94 9.26668e-94 5.01254e-93 2.67782e-92 1.41265e-91 7.35788e-91 3.78334e-90 1.92016e-89 9.61778e-89 4.75355e-88 2.31792e-87 1.11493e-86 5.2892e-86 2.47432e-85 1.14121e-84 5.18859e-84 2.325e-83 1.02661e-82 4.46601e-82 1.91371e-81 8.07588e-81 3.35563e-80 1.37257e-79 5.52567e-79 2.1889e-78 8.53023e-78 3.26957e-77 1.2323e-76 4.56592e-76 1.66274e-75 5.94967e-75 2.09134e-74 7.21941e-74 2.44686e-73 8.14006e-73 2.65725e-72 8.50943e-72 2.6724e-71 8.2282e-71 2.483e-70 7.34143e-70 2.12607e-69 6.02869e-69 1.6733e-68 4.54446e-68 1.20725e-67 3.13595e-67 7.96232e-67 1.9754e-66 4.7869e-66 1.13261e-65 2.6156e-65 5.89343e-65 1.29511e-64 2.77479e-64 5.79399e-64 1.17867e-63 2.33516e-63 4.50404e-63 8.45483e-63 1.54413e-62 2.74286e-62 4.73746e-62 7.95414e-62 1.29792e-61 2.05788e-61 3.16987e-61 4.74307e-61 6.89358e-61 9.73177e-61 1.33451e-60 1.77785e-60 2.30146e-60 2.89592e-60 3.54359e-60 4.21923e-60 4.8921e-60 5.52926e-60 6.09961e-60 6.57794e-60 6.94843e-60 7.20656e-60 7.35941e-60 7.42414e-60 7.42502e-60 7.38963e-60 7.34499e-60 7.31426e-60 7.31435e-60 7.35483e-60 7.43794e-60 7.55961e-60 7.71109e-60 7.88091e-60 8.05692e-60 8.22801e-60 8.38549e-60 8.52382e-60 8.64086e-60 8.73751e-60 8.81708e-60 8.8844e-60 8.94507e-60 9.00472e-60 9.0685e-60 9.14061e-60 9.22393e-60 9.31952e-60 9.42621e-60 9.54015e-60 9.65478e-60 9.76109e-60 9.8485e-60 9.90607e-60 9.92414e-60 9.89584e-60 9.81833e-60 9.69338e-60 9.52732e-60 9.33016e-60 9.11425e-60 8.89265e-60 8.6774e-60 8.47812e-60 8.30086e-60 8.14753e-60 8.01578e-60 7.89948e-60 7.78959e-60 7.67564e-60 7.54737e-60 7.39664e-60 7.21919e-60 7.01595e-60 6.79367e-60 6.56465e-60 6.34544e-60 6.15472e-60 6.01057e-60 5.92774e-60 5.91519e-60 5.97454e-60 6.09956e-60 6.2769e-60 6.48783e-60 6.71081e-60 6.92433e-60 7.10962e-60 7.25293e-60 7.34686e-60 7.39079e-60 7.39036e-60 7.35612e-60 7.30178e-60 7.24212e-60 7.19104e-60 7.15996e-60 7.15653e-60 7.18395e-60 7.24065e-60 7.32048e-60 7.41314e-60 7.50507e-60 7.58042e-60 7.62253e-60 7.61533e-60 7.54503e-60 7.40149e-60 7.17928e-60 6.87825e-60 6.50339e-60 6.06419e-60 5.5735e-60 5.04632e-60 4.49854e-60 3.94587e-60 3.40306e-60 2.88327e-60 2.39761e-60 1.95485e-60 1.56113e-60 1.21987e-60 9.31763e-61 6.95071e-61 5.05982e-61 3.59188e-61 2.48506e-61 1.67485e-61 1.09922e-61 7.02337e-62 4.36805e-62 2.64406e-62 1.55771e-62 8.93217e-63 4.98566e-63 2.70924e-63 1.43355e-63 7.38777e-64 3.70899e-64 1.81451e-64 8.65259e-65 4.02302e-65 1.82437e-65 8.07178e-66 3.48552e-66 1.46944e-66 6.05023e-67 2.43374e-67 9.56771e-68 3.67723e-68 1.38216e-68 5.08237e-69 1.8289e-69 6.44272e-70 2.22252e-70 7.5103e-71 2.48678e-71 8.07092e-72 2.56827e-72 8.01535e-73 2.4541e-73 7.37347e-74 2.17462e-74 6.29718e-75 1.79091e-75 5.00354e-76 1.37363e-76 3.70647e-77 9.83212e-78 2.5642e-78 6.55614e-79 1.56011e-79 0 
0 3.66503e-111 2.60607e-110 1.79956e-109 1.2298e-108 8.3199e-108 5.57154e-107 3.6929e-106 2.42244e-105 1.5725e-104 1.01003e-103 6.41863e-103 4.03524e-102 2.5094e-101 1.54347e-100 9.38865e-100 5.6473e-99 3.35861e-98 1.97474e-97 1.14773e-96 6.59325e-96 3.74311e-95 2.09984e-94 1.16387e-93 6.37277e-93 3.4467e-92 1.84106e-91 9.71101e-91 5.05741e-90 2.60015e-89 1.3195e-88 6.60838e-88 3.26579e-87 1.59229e-86 7.65816e-86 3.63266e-85 1.69921e-84 7.83645e-84 3.56257e-83 1.59624e-82 7.04772e-82 3.06569e-81 1.31357e-80 5.54291e-80 2.303e-79 9.41958e-79 3.7919e-78 1.50202e-77 5.8532e-77 2.2434e-76 8.45505e-76 3.13268e-75 1.14078e-74 4.08191e-74 1.43479e-73 4.95294e-73 1.67869e-72 5.58455e-72 1.82304e-71 5.83808e-71 1.83349e-70 5.64537e-70 1.70363e-69 5.03726e-69 1.45884e-68 4.13687e-68 1.14827e-67 3.11871e-67 8.28542e-67 2.15234e-66 5.46524e-66 1.35598e-65 3.28612e-65 7.77573e-65 1.79583e-64 4.04665e-64 8.89344e-64 1.90558e-63 3.97932e-63 8.09576e-63 1.60405e-62 3.09413e-62 5.80863e-62 1.06092e-61 1.88468e-61 3.25543e-61 5.46618e-61 8.91997e-61 1.41436e-60 2.17873e-60 3.26017e-60 4.73851e-60 6.68963e-60 9.1737e-60 1.22215e-59 1.58212e-59 1.99081e-59 2.43608e-59 2.90058e-59 3.36319e-59 3.80127e-59 4.19343e-59 4.52237e-59 4.7772e-59 4.95483e-59 5.06011e-59 5.10484e-59 5.10566e-59 5.08152e-59 5.05098e-59 5.02992e-59 5.02996e-59 5.05768e-59 5.11461e-59 5.19798e-59 5.30177e-59 5.41815e-59 5.53878e-59 5.65605e-59 5.76399e-59 5.85883e-59 5.93909e-59 6.00539e-59 6.05998e-59 6.10619e-59 6.14784e-59 6.18878e-59 6.23253e-59 6.28198e-59 6.33909e-59 6.40458e-59 6.47765e-59 6.55568e-59 6.63416e-59 6.70694e-59 6.76676e-59 6.80615e-59 6.81848e-59 6.79904e-59 6.7459e-59 6.66028e-59 6.54649e-59 6.41141e-59 6.26349e-59 6.11168e-59 5.96424e-59 5.82774e-59 5.70633e-59 5.60131e-59 5.51107e-59 5.4314e-59 5.35609e-59 5.27796e-59 5.18998e-59 5.08658e-59 4.96482e-59 4.82535e-59 4.67281e-59 4.51565e-59 4.36521e-59 4.23431e-59 4.13536e-59 4.07849e-59 4.06985e-59 4.11054e-59 4.19629e-59 4.31795e-59 4.46267e-59 4.61568e-59 4.76221e-59 4.8894e-59 4.98781e-59 5.05235e-59 5.08259e-59 5.0824e-59 5.059e-59 5.0218e-59 4.98092e-59 4.94591e-59 4.92458e-59 4.9222e-59 4.94094e-59 4.97976e-59 5.03442e-59 5.09789e-59 5.16085e-59 5.21246e-59 5.24128e-59 5.2363e-59 5.18804e-59 5.08955e-59 4.93708e-59 4.73052e-59 4.47325e-59 4.17176e-59 3.83484e-59 3.47276e-59 3.09641e-59 2.71656e-59 2.34336e-59 1.98584e-59 1.65168e-59 1.34693e-59 1.07584e-59 8.40794e-60 6.42311e-60 4.79207e-60 3.4888e-60 2.47685e-60 1.71374e-60 1.15507e-60 7.58109e-61 4.84399e-61 3.01265e-61 1.82361e-61 1.07434e-61 6.1603e-62 3.43838e-62 1.86837e-62 9.88571e-63 5.09433e-63 2.55744e-63 1.25108e-63 5.96549e-64 2.77348e-64 1.25765e-64 5.56403e-65 2.40249e-65 1.01279e-65 4.1698e-66 1.67723e-66 6.59332e-67 2.53393e-67 9.52383e-68 3.50188e-68 1.26011e-68 4.43885e-69 1.53121e-69 5.17407e-70 1.71318e-70 5.56007e-71 1.76926e-71 5.52166e-72 1.69058e-72 5.07946e-73 1.49807e-73 4.33808e-74 1.23376e-74 3.44702e-75 9.46342e-76 2.55358e-76 6.77409e-77 1.76674e-77 4.51739e-78 1.07501e-78 0 
0 2.504e-110 1.78018e-109 1.22903e-108 8.39753e-108 5.68006e-107 3.80304e-106 2.52026e-105 1.65293e-104 1.07279e-103 6.88941e-103 4.37739e-102 2.75149e-101 1.71079e-100 1.05209e-99 6.39864e-99 3.84819e-98 2.28827e-97 1.34521e-96 7.81728e-96 4.49003e-95 2.5487e-94 1.42959e-93 7.92259e-93 4.33744e-92 2.34558e-91 1.25273e-90 6.60693e-90 3.44041e-89 1.76859e-88 8.97404e-88 4.49392e-87 2.22061e-86 1.08258e-85 5.20617e-85 2.46931e-84 1.15494e-83 5.32588e-83 2.42102e-82 1.08468e-81 4.78868e-81 2.08288e-80 8.92402e-80 3.76546e-79 1.56441e-78 6.39829e-78 2.57555e-77 1.02016e-76 3.9753e-76 1.52359e-75 5.74204e-75 2.12744e-74 7.74703e-74 2.77199e-73 9.74346e-73 3.36347e-72 1.13998e-71 3.79244e-71 1.23804e-70 3.96474e-70 1.24519e-69 3.83408e-69 1.15707e-68 3.42135e-68 9.90901e-68 2.81007e-67 7.80032e-67 2.1187e-66 5.62908e-66 1.46239e-65 3.71358e-65 9.21445e-65 2.23323e-64 5.28479e-64 1.22064e-63 2.75078e-63 6.046e-63 1.29558e-62 2.70573e-62 5.50518e-62 1.09086e-61 2.1044e-61 3.95094e-61 7.21683e-61 1.28213e-60 2.21481e-60 3.71914e-60 6.06947e-60 9.62438e-60 1.48265e-59 2.21869e-59 3.2249e-59 4.55293e-59 6.24376e-59 8.31835e-59 1.07686e-58 1.35505e-58 1.65814e-58 1.97433e-58 2.28923e-58 2.58744e-58 2.85442e-58 3.07838e-58 3.25192e-58 3.37293e-58 3.44473e-58 3.47531e-58 3.47602e-58 3.45971e-58 3.43902e-58 3.42473e-58 3.42474e-58 3.44352e-58 3.48213e-58 3.53867e-58 3.60909e-58 3.68805e-58 3.76989e-58 3.84947e-58 3.92272e-58 3.98709e-58 4.04158e-58 4.0866e-58 4.12368e-58 4.15508e-58 4.18338e-58 4.2112e-58 4.24092e-58 4.27449e-58 4.31324e-58 4.35766e-58 4.40721e-58 4.46011e-58 4.5133e-58 4.56263e-58 4.60317e-58 4.62984e-58 4.63817e-58 4.62496e-58 4.58889e-58 4.53079e-58 4.45361e-58 4.36198e-58 4.26166e-58 4.1587e-58 4.05871e-58 3.96615e-58 3.88382e-58 3.81261e-58 3.75143e-58 3.69739e-58 3.6463e-58 3.59327e-58 3.53353e-58 3.4633e-58 3.38059e-58 3.28584e-58 3.1822e-58 3.07542e-58 2.9732e-58 2.88426e-58 2.81702e-58 2.77837e-58 2.77247e-58 2.80008e-58 2.85832e-58 2.94095e-58 3.03926e-58 3.14321e-58 3.24277e-58 3.3292e-58 3.3961e-58 3.44e-58 3.46061e-58 3.46055e-58 3.44473e-58 3.41951e-58 3.39178e-58 3.36802e-58 3.35353e-58 3.35188e-58 3.36457e-58 3.39087e-58 3.42793e-58 3.47097e-58 3.51367e-58 3.54866e-58 3.56819e-58 3.56478e-58 3.53199e-58 3.46509e-58 3.36152e-58 3.22119e-58 3.04638e-58 2.84148e-58 2.61245e-58 2.36623e-58 2.11022e-58 1.85175e-58 1.5977e-58 1.35423e-58 1.12659e-58 9.18901e-59 7.34092e-59 5.73804e-59 4.38412e-59 3.27127e-59 2.38185e-59 1.69113e-59 1.17018e-59 7.88746e-60 5.17698e-60 3.30793e-60 2.05734e-60 1.24533e-60 7.33648e-61 4.20664e-61 2.34785e-61 1.27573e-61 6.74969e-62 3.47807e-62 1.74595e-62 8.54047e-63 4.07207e-63 1.89306e-63 8.58359e-64 3.79725e-64 1.6395e-64 6.91101e-65 2.84517e-65 1.14435e-65 4.49824e-66 1.72865e-66 6.49682e-67 2.38874e-67 8.59515e-68 3.0276e-68 1.04434e-68 3.52881e-69 1.16838e-69 3.79185e-70 1.20658e-70 3.76552e-71 1.15289e-71 3.46389e-72 1.02159e-72 2.95832e-73 8.41361e-74 2.35072e-74 6.45377e-75 1.74151e-75 4.61997e-76 1.20497e-76 3.08109e-77 7.33242e-78 0 
0 1.69354e-109 1.20378e-108 8.30929e-108 5.67639e-107 3.83879e-106 2.56977e-105 1.70267e-104 1.11651e-103 7.24513e-103 4.652e-102 2.95529e-101 1.85729e-100 1.15461e-99 7.0994e-99 4.31707e-98 2.5959e-97 1.54338e-96 9.07174e-96 5.27098e-95 3.02706e-94 1.71803e-93 9.63518e-93 5.33897e-92 2.92257e-91 1.58025e-90 8.43878e-90 4.45007e-89 2.317e-88 1.19095e-87 6.04232e-87 3.02548e-86 1.49484e-85 7.28684e-85 3.50393e-84 1.66178e-83 7.77171e-83 3.58355e-82 1.62887e-81 7.29716e-81 3.22136e-80 1.40107e-79 6.00244e-79 2.53257e-78 1.05213e-77 4.30292e-77 1.73201e-76 6.86017e-76 2.67313e-75 1.02449e-74 3.86097e-74 1.43047e-73 5.20899e-73 1.86383e-72 6.55132e-72 2.26155e-71 7.66511e-71 2.55005e-70 8.32479e-70 2.66604e-69 8.37339e-69 2.57837e-68 7.7815e-68 2.30102e-67 6.66464e-67 1.89012e-66 5.24702e-66 1.42528e-65 3.78703e-65 9.83917e-65 2.49875e-64 6.20064e-64 1.50293e-63 3.5569e-63 8.21625e-63 1.85175e-62 4.07039e-62 8.72317e-62 1.82195e-61 3.70737e-61 7.34693e-61 1.41744e-60 2.66145e-60 4.86186e-60 8.63826e-60 1.49233e-59 2.50613e-59 4.09018e-59 6.48624e-59 9.99273e-59 1.49542e-58 2.17372e-58 3.06898e-58 4.20885e-58 5.60744e-58 7.25932e-58 9.13478e-58 1.11781e-57 1.33097e-57 1.54327e-57 1.74433e-57 1.92433e-57 2.07535e-57 2.19239e-57 2.27404e-57 2.32253e-57 2.34324e-57 2.3438e-57 2.33289e-57 2.319e-57 2.30939e-57 2.30938e-57 2.32199e-57 2.34791e-57 2.3859e-57 2.4332e-57 2.48625e-57 2.54125e-57 2.59472e-57 2.64396e-57 2.68722e-57 2.72385e-57 2.75413e-57 2.77907e-57 2.8002e-57 2.81925e-57 2.83797e-57 2.85796e-57 2.88053e-57 2.90656e-57 2.9364e-57 2.96967e-57 3.00519e-57 3.0409e-57 3.07401e-57 3.10121e-57 3.1191e-57 3.12467e-57 3.11578e-57 3.09153e-57 3.0525e-57 3.00064e-57 2.9391e-57 2.87171e-57 2.80256e-57 2.73541e-57 2.67325e-57 2.61797e-57 2.57015e-57 2.52906e-57 2.49277e-57 2.45845e-57 2.4228e-57 2.38264e-57 2.3354e-57 2.27976e-57 2.21601e-57 2.14628e-57 2.07443e-57 2.00565e-57 1.9458e-57 1.90055e-57 1.87453e-57 1.87054e-57 1.8891e-57 1.92827e-57 1.98385e-57 2.04998e-57 2.11992e-57 2.18691e-57 2.24509e-57 2.29012e-57 2.3197e-57 2.33361e-57 2.33361e-57 2.32301e-57 2.30608e-57 2.28745e-57 2.27148e-57 2.26173e-57 2.26061e-57 2.26911e-57 2.28677e-57 2.31165e-57 2.34055e-57 2.36923e-57 2.39273e-57 2.40584e-57 2.40353e-57 2.38146e-57 2.33645e-57 2.26678e-57 2.17237e-57 2.05474e-57 1.91683e-57 1.76263e-57 1.59682e-57 1.42435e-57 1.25016e-57 1.07888e-57 9.14674e-58 7.61079e-58 6.20897e-58 4.96114e-58 3.87853e-58 2.96381e-58 2.21176e-58 1.61059e-58 1.14363e-58 7.91389e-59 5.33454e-59 3.50147e-59 2.23737e-59 1.39151e-59 8.42291e-60 4.96199e-60 2.84504e-60 1.58784e-60 8.62728e-61 4.56428e-61 2.3518e-61 1.18049e-61 5.77408e-62 2.75286e-62 1.27968e-62 5.80193e-63 2.56649e-63 1.10802e-63 4.67031e-64 1.92256e-64 7.73214e-65 3.03916e-65 1.16786e-65 4.38891e-66 1.61361e-66 5.80576e-67 2.04495e-67 7.05354e-68 2.38326e-68 7.89067e-69 2.56074e-69 8.14809e-70 2.54282e-70 7.7852e-71 2.33906e-71 6.89846e-72 1.99764e-72 5.68141e-73 1.58737e-73 4.35808e-74 1.17602e-74 3.11988e-75 8.13741e-76 2.0808e-76 4.95206e-77 0 
0 1.13376e-108 8.0574e-108 5.56074e-107 3.79805e-106 2.56806e-105 1.71881e-104 1.13864e-103 7.46522e-103 4.84342e-102 3.10937e-101 1.97496e-100 1.24099e-99 7.71355e-99 4.74209e-98 2.88316e-97 1.73341e-96 1.03043e-95 6.05582e-95 3.51812e-94 2.02013e-93 1.14637e-92 6.42832e-92 3.56153e-91 1.94934e-90 1.05389e-89 5.62723e-89 2.96708e-88 1.54468e-87 7.93882e-87 4.02736e-86 2.01634e-85 9.96144e-85 4.85539e-84 2.33453e-83 1.10708e-82 5.1771e-82 2.38698e-81 1.08489e-80 4.85988e-80 2.14527e-79 9.32984e-79 3.99686e-78 1.68628e-77 7.00516e-77 2.8648e-76 1.15309e-75 4.56705e-75 1.77955e-74 6.82007e-74 2.57022e-73 9.52248e-73 3.46754e-72 1.24073e-71 4.36115e-71 1.50551e-70 5.10275e-70 1.69764e-69 5.54221e-69 1.77497e-68 5.57499e-68 1.71675e-67 5.18142e-67 1.53226e-66 4.43828e-66 1.2588e-65 3.49471e-65 9.49362e-65 2.52271e-64 6.55487e-64 1.66482e-63 4.13164e-63 1.00154e-62 2.37052e-62 5.47632e-62 1.23436e-61 2.71358e-61 5.81603e-61 1.21489e-60 2.47235e-60 4.89999e-60 9.45452e-60 1.7754e-59 3.24356e-59 5.7635e-59 9.95779e-59 1.67239e-58 2.72967e-58 4.32903e-58 6.66975e-58 9.98191e-58 1.45102e-57 2.04872e-57 2.80973e-57 3.74351e-57 4.84639e-57 6.09856e-57 7.46281e-57 8.88601e-57 1.03035e-56 1.16459e-56 1.28478e-56 1.38562e-56 1.4638e-56 1.51835e-56 1.55077e-56 1.56466e-56 1.56509e-56 1.55786e-56 1.54862e-56 1.54222e-56 1.5422e-56 1.55057e-56 1.56781e-56 1.59308e-56 1.62455e-56 1.65985e-56 1.69644e-56 1.73202e-56 1.76479e-56 1.79359e-56 1.81797e-56 1.83813e-56 1.85475e-56 1.86883e-56 1.88152e-56 1.89399e-56 1.90731e-56 1.92233e-56 1.93966e-56 1.9595e-56 1.98163e-56 2.00524e-56 2.02898e-56 2.05098e-56 2.06906e-56 2.08094e-56 2.08463e-56 2.07871e-56 2.06257e-56 2.0366e-56 2.0021e-56 1.96116e-56 1.91634e-56 1.87035e-56 1.82569e-56 1.78435e-56 1.74759e-56 1.7158e-56 1.68848e-56 1.66434e-56 1.64151e-56 1.61779e-56 1.59104e-56 1.55958e-56 1.52251e-56 1.48004e-56 1.43358e-56 1.38571e-56 1.33988e-56 1.3e-56 1.26984e-56 1.25249e-56 1.24983e-56 1.26218e-56 1.28827e-56 1.32529e-56 1.36935e-56 1.41594e-56 1.46059e-56 1.49936e-56 1.52938e-56 1.54911e-56 1.5584e-56 1.55844e-56 1.5514e-56 1.54014e-56 1.52775e-56 1.51712e-56 1.51062e-56 1.50986e-56 1.51551e-56 1.52724e-56 1.54379e-56 1.56301e-56 1.58208e-56 1.59771e-56 1.60643e-56 1.60488e-56 1.59017e-56 1.56019e-56 1.51378e-56 1.45088e-56 1.37249e-56 1.28057e-56 1.17777e-56 1.06718e-56 9.52123e-57 8.35867e-57 7.21511e-57 6.11833e-57 5.09201e-57 4.15496e-57 3.32055e-57 2.59639e-57 1.98435e-57 1.48103e-57 1.07859e-57 7.6594e-58 5.30065e-58 3.5732e-58 2.34544e-58 1.49871e-58 9.32109e-59 5.64202e-59 3.32366e-59 1.9056e-59 1.06348e-59 5.77793e-60 3.05664e-60 1.57485e-60 7.90446e-61 3.86596e-61 1.84299e-61 8.56652e-62 3.88364e-62 1.71779e-62 7.41551e-63 3.12537e-63 1.28647e-63 5.17352e-64 2.03332e-64 7.81287e-65 2.93593e-65 1.07934e-65 3.88321e-66 1.36769e-66 4.71726e-67 1.5938e-67 5.27661e-68 1.71233e-68 5.44834e-69 1.70024e-69 5.20539e-70 1.56393e-70 4.61233e-71 1.33562e-71 3.79855e-72 1.06131e-72 2.9138e-73 7.86293e-74 2.086e-74 5.44091e-75 1.39132e-75 3.31127e-76 0 
0 7.51231e-108 5.33788e-107 3.68322e-106 2.51523e-105 1.70037e-104 1.13786e-103 7.53655e-103 4.94031e-102 3.20472e-101 2.05702e-100 1.30633e-99 8.20714e-99 5.10045e-98 3.13513e-97 1.90584e-96 1.14566e-95 6.80939e-95 4.00127e-94 2.3242e-93 1.33439e-92 7.57128e-92 4.24505e-91 2.35161e-90 1.28695e-89 6.95687e-89 3.71418e-88 1.95816e-87 1.01931e-86 5.23815e-86 2.65703e-85 1.33014e-84 6.57071e-84 3.20239e-83 1.53961e-82 7.30052e-82 3.41371e-81 1.57382e-80 7.15261e-80 3.20387e-79 1.41418e-78 6.14996e-78 2.63448e-77 1.11144e-76 4.61696e-76 1.88806e-75 7.59931e-75 3.00978e-74 1.17274e-73 4.49441e-73 1.69376e-72 6.27522e-72 2.28508e-71 8.17636e-71 2.87403e-70 9.92162e-70 3.36291e-69 1.11884e-68 3.65278e-68 1.16991e-67 3.67473e-67 1.13165e-66 3.41571e-66 1.01016e-65 2.92622e-65 8.30007e-65 2.30448e-64 6.26081e-64 1.66382e-63 4.32358e-63 1.09822e-62 2.72577e-62 6.60817e-62 1.56425e-61 3.61409e-61 8.14708e-61 1.79123e-60 3.8396e-60 8.02131e-60 1.63256e-59 3.23597e-59 6.24449e-59 1.17273e-58 2.14275e-58 3.80785e-58 6.57957e-58 1.10513e-57 1.80393e-57 2.8611e-57 4.4084e-57 6.59799e-57 9.59165e-57 1.35432e-56 1.85746e-56 2.47483e-56 3.20402e-56 4.0319e-56 4.93389e-56 5.87486e-56 6.81203e-56 7.69959e-56 8.49429e-56 9.16114e-56 9.67816e-56 1.00391e-55 1.02537e-55 1.03459e-55 1.03491e-55 1.03016e-55 1.02408e-55 1.01985e-55 1.01983e-55 1.02534e-55 1.03669e-55 1.05333e-55 1.07406e-55 1.09731e-55 1.12142e-55 1.14487e-55 1.16646e-55 1.18544e-55 1.20151e-55 1.21481e-55 1.22577e-55 1.23505e-55 1.24343e-55 1.25166e-55 1.26044e-55 1.27034e-55 1.28176e-55 1.29483e-55 1.30939e-55 1.32494e-55 1.34056e-55 1.35504e-55 1.36694e-55 1.37475e-55 1.37718e-55 1.37326e-55 1.36263e-55 1.34552e-55 1.3228e-55 1.29583e-55 1.26631e-55 1.23602e-55 1.20661e-55 1.1794e-55 1.15519e-55 1.13426e-55 1.11628e-55 1.10038e-55 1.08534e-55 1.06971e-55 1.05208e-55 1.03133e-55 1.00688e-55 9.78861e-56 9.48211e-56 9.16625e-56 8.86387e-56 8.6007e-56 8.4017e-56 8.28718e-56 8.26953e-56 8.35098e-56 8.52299e-56 8.76719e-56 9.05783e-56 9.36523e-56 9.65978e-56 9.91564e-56 1.01138e-55 1.02441e-55 1.03056e-55 1.0306e-55 1.02598e-55 1.01857e-55 1.01041e-55 1.0034e-55 9.9911e-56 9.98602e-56 1.00231e-55 1.01004e-55 1.02093e-55 1.03359e-55 1.04615e-55 1.05644e-55 1.06218e-55 1.06115e-55 1.05145e-55 1.03168e-55 1.00106e-55 9.59563e-56 9.07842e-56 8.47175e-56 7.79306e-56 7.06278e-56 6.30265e-56 5.53434e-56 4.77827e-56 4.05284e-56 3.37374e-56 2.75346e-56 2.20093e-56 1.72123e-56 1.31569e-56 9.82101e-57 7.15312e-57 5.08011e-57 3.5159e-57 2.3702e-57 1.55583e-57 9.94174e-58 6.18314e-58 3.74256e-58 2.20463e-58 1.26396e-58 7.05354e-59 3.83197e-59 2.02704e-59 1.0443e-59 5.2411e-60 2.56313e-60 1.22179e-60 5.67856e-61 2.57414e-61 1.13847e-61 4.91421e-62 2.07098e-62 8.52382e-63 3.42753e-63 1.34699e-63 5.17526e-64 1.94461e-64 7.14845e-65 2.57166e-65 9.05695e-66 3.1236e-66 1.05529e-66 3.49359e-67 1.13366e-67 3.60696e-68 1.12557e-68 3.44588e-69 1.03526e-69 3.05313e-70 8.84096e-71 2.51438e-71 7.02506e-72 1.92872e-72 5.2047e-73 1.3808e-73 3.60159e-74 9.20995e-75 2.19197e-75 0 
0 4.92615e-107 3.49967e-106 2.41439e-105 1.64846e-104 1.11421e-103 7.45483e-103 4.93682e-102 3.2356e-101 2.09854e-100 1.34677e-99 8.55143e-99 5.37166e-98 3.33777e-97 2.05134e-96 1.24682e-95 7.49386e-95 4.45344e-94 2.61652e-93 1.51963e-92 8.72343e-92 4.949e-91 2.77443e-90 1.53675e-89 8.40901e-89 4.54511e-88 2.42629e-87 1.27902e-86 6.65719e-86 3.42071e-85 1.73497e-84 8.68461e-84 4.28969e-83 2.09049e-82 1.00496e-81 4.76494e-81 2.22791e-80 1.02706e-79 4.66743e-79 2.09055e-78 9.22712e-78 4.01248e-77 1.71876e-76 7.25084e-76 3.01192e-75 1.23166e-74 4.95722e-74 1.96332e-73 7.64981e-73 2.9317e-72 1.10483e-71 4.09334e-71 1.49058e-70 5.33359e-70 1.87483e-69 6.47238e-69 2.19387e-68 7.29934e-68 2.38319e-67 7.63323e-67 2.39777e-66 7.38453e-66 2.22906e-65 6.59272e-65 1.90992e-64 5.41785e-64 1.50438e-63 4.0875e-63 1.08637e-62 2.82332e-62 7.17225e-62 1.78034e-61 4.31664e-61 1.02193e-60 2.36139e-60 5.32384e-60 1.17065e-59 2.50968e-59 5.24362e-59 1.06736e-58 2.11591e-58 4.08359e-58 7.67001e-58 1.40158e-57 2.49099e-57 4.30462e-57 7.23086e-57 1.18042e-56 1.87234e-56 2.88513e-56 4.31841e-56 6.27813e-56 8.865e-56 1.21589e-55 1.62006e-55 2.09745e-55 2.63945e-55 3.22997e-55 3.84599e-55 4.45954e-55 5.0406e-55 5.56089e-55 5.99751e-55 6.33608e-55 6.5725e-55 6.71321e-55 6.77375e-55 6.77609e-55 6.74519e-55 6.70547e-55 6.67787e-55 6.67766e-55 6.7135e-55 6.78748e-55 6.89598e-55 7.03119e-55 7.18287e-55 7.34014e-55 7.4931e-55 7.63396e-55 7.75781e-55 7.86272e-55 7.94949e-55 8.02105e-55 8.08172e-55 8.13643e-55 8.19018e-55 8.24751e-55 8.31213e-55 8.38659e-55 8.47183e-55 8.5668e-55 8.6681e-55 8.76993e-55 8.86429e-55 8.94178e-55 8.99268e-55 9.00841e-55 8.98285e-55 8.91346e-55 8.80186e-55 8.65366e-55 8.47781e-55 8.28532e-55 8.08783e-55 7.89609e-55 7.71865e-55 7.56088e-55 7.42445e-55 7.3072e-55 7.20359e-55 7.10551e-55 7.00352e-55 6.88843e-55 6.75295e-55 6.59328e-55 6.41028e-55 6.21008e-55 6.00375e-55 5.80621e-55 5.63427e-55 5.50425e-55 5.42941e-55 5.41783e-55 5.47099e-55 5.58331e-55 5.74279e-55 5.93261e-55 6.13341e-55 6.32584e-55 6.49302e-55 6.62256e-55 6.70777e-55 6.74805e-55 6.74843e-55 6.71833e-55 6.67003e-55 6.61677e-55 6.57102e-55 6.54302e-55 6.53965e-55 6.56381e-55 6.61413e-55 6.68515e-55 6.76769e-55 6.8496e-55 6.91674e-55 6.95413e-55 6.94738e-55 6.88403e-55 6.75488e-55 6.55494e-55 6.28388e-55 5.94598e-55 5.54954e-55 5.1059e-55 4.62839e-55 4.13117e-55 3.62841e-55 3.13345e-55 2.65835e-55 2.21341e-55 1.80685e-55 1.44455e-55 1.12991e-55 8.63822e-56 6.44887e-56 4.69755e-56 3.33646e-56 2.30929e-56 1.55685e-56 1.02197e-56 6.53038e-57 4.06145e-57 2.45828e-57 1.44804e-57 8.30151e-58 4.63238e-58 2.51646e-58 1.33106e-58 6.85682e-59 3.44096e-59 1.68262e-59 8.01994e-60 3.72708e-60 1.68935e-60 7.47075e-61 3.22442e-61 1.35872e-61 5.59171e-62 2.24827e-62 8.83467e-63 3.39405e-63 1.27521e-63 4.6873e-64 1.68613e-64 5.93779e-65 2.04771e-65 6.91762e-66 2.28996e-66 7.43046e-67 2.36402e-67 7.37667e-68 2.25825e-68 6.78433e-69 2.00073e-69 5.79338e-70 1.64761e-70 4.6033e-71 1.26382e-71 3.41044e-72 9.04786e-73 2.36001e-73 6.03508e-74 1.43637e-74 0 
0 3.19655e-106 2.27052e-105 1.56613e-104 1.06911e-103 7.22498e-103 4.83317e-102 3.20013e-101 2.09702e-100 1.35986e-99 8.72568e-99 5.53955e-98 3.47917e-97 2.16151e-96 1.32823e-95 8.07185e-95 4.85079e-94 2.88231e-93 1.6932e-92 9.83248e-92 5.64357e-91 3.20131e-90 1.79444e-89 9.93811e-89 5.43744e-88 2.93863e-87 1.56853e-86 8.26765e-86 4.30278e-85 2.21071e-84 1.12115e-83 5.61155e-83 2.77153e-82 1.35054e-81 6.49193e-81 3.07786e-80 1.43899e-79 6.6333e-79 3.01428e-78 1.35003e-77 5.95836e-77 2.59092e-76 1.10978e-75 4.68163e-75 1.94464e-74 7.95201e-74 3.20049e-73 1.26754e-72 4.93879e-72 1.89274e-71 7.13296e-71 2.64274e-70 9.62366e-70 3.44362e-69 1.21051e-68 4.17916e-68 1.41662e-67 4.71354e-67 1.53902e-66 4.92972e-66 1.54864e-65 4.76977e-65 1.43989e-64 4.25903e-64 1.23396e-63 3.5007e-63 9.72141e-63 2.64165e-62 7.0217e-62 1.82506e-61 4.63686e-61 1.15113e-60 2.79141e-60 6.6093e-60 1.52743e-59 3.44409e-59 7.57421e-59 1.624e-58 3.39357e-58 6.90866e-58 1.36974e-57 2.64387e-57 4.96648e-57 9.07659e-57 1.61335e-56 2.78829e-56 4.68424e-56 7.64764e-56 1.21315e-55 1.86951e-55 2.79845e-55 4.06864e-55 5.7454e-55 7.88048e-55 1.05004e-54 1.35948e-54 1.71082e-54 2.0936e-54 2.49291e-54 2.8906e-54 3.26725e-54 3.60451e-54 3.88755e-54 4.10705e-54 4.26037e-54 4.35168e-54 4.39105e-54 4.39269e-54 4.37278e-54 4.34712e-54 4.32924e-54 4.32905e-54 4.35215e-54 4.39988e-54 4.46992e-54 4.55722e-54 4.65516e-54 4.75673e-54 4.85552e-54 4.94651e-54 5.02651e-54 5.09429e-54 5.15037e-54 5.19663e-54 5.23586e-54 5.27125e-54 5.306e-54 5.34306e-54 5.38481e-54 5.43289e-54 5.48792e-54 5.54921e-54 5.61458e-54 5.68027e-54 5.74115e-54 5.79113e-54 5.82395e-54 5.83406e-54 5.81753e-54 5.77271e-54 5.70064e-54 5.60495e-54 5.49142e-54 5.36715e-54 5.23967e-54 5.11591e-54 5.00139e-54 4.89957e-54 4.81153e-54 4.73587e-54 4.669e-54 4.60568e-54 4.53981e-54 4.46544e-54 4.37787e-54 4.27464e-54 4.15631e-54 4.02684e-54 3.8934e-54 3.76564e-54 3.65443e-54 3.57032e-54 3.5219e-54 3.51438e-54 3.54873e-54 3.62134e-54 3.72445e-54 3.8472e-54 3.97706e-54 4.10152e-54 4.20966e-54 4.29348e-54 4.34865e-54 4.37477e-54 4.37508e-54 4.35569e-54 4.32452e-54 4.29012e-54 4.26056e-54 4.24244e-54 4.24023e-54 4.2558e-54 4.28827e-54 4.3341e-54 4.38739e-54 4.44028e-54 4.48362e-54 4.50776e-54 4.50338e-54 4.46242e-54 4.37892e-54 4.24964e-54 4.07436e-54 3.85581e-54 3.59932e-54 3.31222e-54 3.00308e-54 2.68108e-54 2.35534e-54 2.03454e-54 1.72646e-54 1.43782e-54 1.17398e-54 9.38764e-55 7.34421e-55 5.61558e-55 4.19287e-55 3.05455e-55 2.1697e-55 1.50183e-55 1.01253e-55 6.64672e-56 4.24728e-56 2.64149e-56 1.59877e-56 9.41711e-57 5.39845e-57 3.01222e-57 1.63621e-57 8.65382e-58 4.45753e-58 2.2367e-58 1.09363e-58 5.21206e-59 2.42192e-59 1.09764e-59 4.85354e-60 2.09458e-60 8.82523e-61 3.63157e-61 1.46e-61 5.73652e-62 2.2036e-62 8.27852e-63 3.04267e-63 1.09442e-63 3.85372e-64 1.32889e-64 4.48894e-65 1.48588e-65 4.82108e-66 1.53374e-66 4.78563e-67 1.46497e-67 4.40095e-68 1.29781e-68 3.75786e-69 1.06869e-69 2.98578e-70 8.19724e-71 2.21202e-71 5.86845e-72 1.5307e-72 3.91439e-73 9.3165e-74 0 