# vtk DataFile Version 3.0
Gray-Scott Simulation Output
ASCII
DATASET STRUCTURED_POINTS
DIMENSIONS 256 256 1
SPACING 1.0 1.0 1.0
ORIGIN 0 0 0
POINT_DATA 65536
SCALARS u double
LOOKUP_TABLE default
0 0 0 0 0 0 0 0 0 0 0 0 0 0 0 0 0 0 0 0 0 0 0 0 0 0 0 0 0 0 0 0 0 0 0 0 0 0 0 0 0 0 0 0 0 0 0 0 0 0 0 0 0 0 0 0 0 0 0 0 0 0 0 0 0 0 0 0 0 0 0 0 0 0 0 0 0 0 0 0 0 0 0 0 0 0 0 0 0 0 0 0 0 0 0 0 0 0 0 0 0 0 0 0 0 0 0 0 0 0 0 0 0 0 0 0 0 0 0 0 0 0 0 0 0 0 0 0 0 0 0 0 0 0 0 0 0 0 0 0 0 0 0 0 0 0 0 0 0 0 0 0 0 0 0 0 0 0 0 0 0 0 0 0 0 0 0 0 0 0 0 0 0 0 0 0 0 0 0 0 0 0 0 0 0 0 0 0 0 0 0 0 0 0 0 0 0 0 0 0 0 0 0 0 0 0 0 0 0 0 0 0 0 0 0 0 0 0 0 0 0 0 0 0 0 0 0 0 0 0 0 0 0 0 0 0 0 0 0 0 0 0 0 0 0 0 0 0 0 0 0 0 0 0 0 0 
0 4.12884e-238 1.89225e-236 8.56389e-235 3.82879e-233 1.69086e-231 7.37499e-230 3.17672e-228 1.35118e-226 5.67431e-225 2.35251e-223 9.62763e-222 3.88887e-220 1.55021e-218 6.09771e-217 2.36645e-215 9.05994e-214 3.42132e-212 1.27421e-210 4.67959e-209 1.69446e-207 6.0485e-206 2.12809e-204 7.37892e-203 2.52108e-201 8.4859e-200 2.81356e-198 9.18727e-197 2.954e-195 9.35083e-194 2.91356e-192 8.93403e-191 2.69547e-189 8.00015e-188 2.33531e-186 6.70319e-185 1.89152e-183 5.24606e-182 1.4297e-180 3.82771e-179 1.00648e-177 2.59856e-176 6.58568e-175 1.63791e-173 3.99643e-172 9.56354e-171 2.24386e-169 5.16013e-168 1.16271e-166 2.56611e-165 5.54519e-164 1.17282e-162 2.42692e-161 4.91144e-160 9.71649e-159 1.8783e-157 3.54633e-156 6.53642e-155 1.17553e-153 2.06172e-152 3.52444e-151 5.86904e-150 9.51474e-149 1.50074e-147 2.30144e-146 3.42907e-145 4.96037e-144 6.96101e-143 9.46872e-142 1.24735e-140 1.58988e-139 1.95878e-138 2.33021e-137 2.67365e-136 2.95526e-135 3.14274e-134 3.21102e-133 3.14743e-132 2.95495e-131 2.65262e-130 2.27254e-129 1.85429e-128 1.4378e-127 1.05686e-126 7.34453e-126 4.81123e-125 2.9612e-124 1.70615e-123 9.16498e-123 4.56913e-122 2.10326e-121 8.8879e-121 3.42542e-120 1.19521e-119 3.74472e-119 1.04404e-118 2.56568e-118 5.50631e-118 1.02459e-117 1.64945e-117 2.31374e-117 2.88027e-117 3.25701e-117 3.39813e-117 3.28686e-117 2.95929e-117 2.53288e-117 2.15395e-117 1.90477e-117 1.78533e-117 1.76548e-117 1.81899e-117 1.91722e-117 2.02639e-117 2.12986e-117 2.25764e-117 2.45592e-117 2.71651e-117 2.9604e-117 3.08877e-117 3.04767e-117 2.86953e-117 2.67535e-117 2.59384e-117 2.65433e-117 2.76954e-117 2.82726e-117 2.80543e-117 2.76952e-117 2.76736e-117 2.77427e-117 2.75488e-117 2.73847e-117 2.79292e-117 2.95536e-117 3.20984e-117 3.49833e-117 3.72942e-117 3.80903e-117 3.6885e-117 3.40631e-117 3.08594e-117 2.85318e-117 2.73319e-117 2.65028e-117 2.53286e-117 2.38502e-117 2.26213e-117 2.20486e-117 2.22079e-117 2.2856e-117 2.34185e-117 2.35446e-117 2.37133e-117 2.46193e-117 2.60643e-117 2.68557e-117 2.57824e-117 2.27088e-117 1.87272e-117 1.51941e-117 1.28482e-117 1.17628e-117 1.17821e-117 1.27797e-117 1.46131e-117 1.70988e-117 2.01065e-117 2.34355e-117 2.64034e-117 2.80605e-117 2.80842e-117 2.70802e-117 2.58885e-117 2.47306e-117 2.33396e-117 2.16798e-117 2.0115e-117 1.90636e-117 1.86655e-117 1.88541e-117 1.95799e-117 2.07519e-117 2.20477e-117 2.29753e-117 2.32862e-117 2.34347e-117 2.4513e-117 2.70762e-117 3.00638e-117 3.1429e-117 2.99863e-117 2.63797e-117 2.2264e-117 1.88532e-117 1.63719e-117 1.44516e-117 1.26066e-117 1.05713e-117 8.39157e-118 6.22407e-118 4.21702e-118 2.54679e-118 1.35022e-118 6.25787e-119 2.54405e-119 9.13643e-120 2.92295e-120 8.40078e-121 2.18629e-121 5.1893e-122 1.13065e-122 2.27436e-123 4.24549e-124 7.38778e-125 1.20334e-125 1.84134e-126 2.65572e-127 3.62094e-128 4.67975e-129 5.74708e-130 6.72154e-131 7.50199e-132 8.00551e-133 8.18201e-134 8.02208e-135 7.55642e-136 6.84775e-137 5.97782e-138 5.03294e-139 4.09143e-140 3.21484e-141 2.44403e-142 1.79936e-143 1.28404e-144 8.88894e-146 5.97405e-147 3.90085e-148 2.47644e-149 1.52955e-150 9.1969e-152 5.38675e-153 3.07516e-154 1.712e-155 9.29957e-157 4.93131e-158 2.55394e-159 1.29243e-160 6.39357e-162 3.09316e-163 1.46407e-164 6.78248e-166 3.07643e-167 1.36675e-168 5.93882e-170 0 
0 1.89219e-236 8.6549e-235 3.90934e-233 1.74439e-231 7.68849e-230 3.34695e-228 1.43887e-226 6.10819e-225 2.56019e-223 1.05938e-221 4.32715e-220 1.74449e-218 6.94069e-217 2.72488e-215 1.05547e-213 4.03317e-212 1.52015e-210 5.6508e-209 2.07135e-207 7.48608e-206 2.66717e-204 9.36645e-203 3.24161e-201 1.10545e-199 3.71396e-198 1.22909e-196 4.00594e-195 1.28564e-193 4.06213e-192 1.26335e-190 3.86673e-189 1.16447e-187 3.44979e-186 1.00518e-184 2.87993e-183 8.11181e-182 2.24567e-180 6.10896e-179 1.63257e-177 4.28501e-176 1.10431e-174 2.79368e-173 6.93557e-172 1.68921e-170 4.03508e-169 9.45041e-168 2.1694e-166 4.87952e-165 1.075e-163 2.31889e-162 4.89585e-161 1.01131e-159 2.04302e-158 4.03468e-157 7.78581e-156 1.46743e-154 2.69998e-153 4.84728e-152 8.48672e-151 1.44827e-149 2.40755e-148 3.89634e-147 6.13505e-146 9.39222e-145 1.39702e-143 2.01744e-142 2.82631e-141 3.83799e-140 5.0474e-139 6.4226e-138 7.89955e-137 9.38177e-136 1.07466e-134 1.18588e-133 1.25902e-132 1.28425e-131 1.25675e-130 1.17797e-129 1.05573e-128 9.02996e-128 7.35614e-127 5.69477e-126 4.17929e-125 2.89978e-124 1.8966e-123 1.16551e-122 6.70494e-122 3.59627e-121 1.79022e-120 8.22866e-120 3.47226e-119 1.33636e-118 4.65663e-118 1.45711e-117 4.05767e-117 9.96084e-117 2.13576e-116 3.97123e-116 6.38999e-116 8.96122e-116 1.11546e-115 1.26137e-115 1.31603e-115 1.27295e-115 1.14615e-115 9.81067e-116 8.34287e-116 7.37697e-116 6.91392e-116 6.83718e-116 7.04465e-116 7.42486e-116 7.84723e-116 8.24791e-116 8.7431e-116 9.51093e-116 1.05195e-115 1.14634e-115 1.19607e-115 1.18028e-115 1.11153e-115 1.03658e-115 1.0051e-115 1.02842e-115 1.07285e-115 1.09513e-115 1.08672e-115 1.07285e-115 1.07197e-115 1.07457e-115 1.06708e-115 1.06081e-115 1.08196e-115 1.14491e-115 1.24348e-115 1.35518e-115 1.44464e-115 1.47545e-115 1.42882e-115 1.31968e-115 1.19575e-115 1.1056e-115 1.05896e-115 1.02668e-115 9.8113e-116 9.23886e-116 8.76311e-116 8.54136e-116 8.60293e-116 8.85336e-116 9.07085e-116 9.12029e-116 9.18643e-116 9.5366e-116 1.0094e-115 1.03982e-115 9.98163e-116 8.79207e-116 7.25115e-116 5.88317e-116 4.9743e-116 4.55369e-116 4.56118e-116 4.94766e-116 5.6579e-116 6.621e-116 7.78643e-116 9.07578e-116 1.02247e-115 1.08666e-115 1.08768e-115 1.04889e-115 1.00272e-115 9.57774e-116 9.03824e-116 8.39516e-116 7.78896e-116 7.38139e-116 7.22678e-116 7.29974e-116 7.58103e-116 8.0351e-116 8.53705e-116 8.89678e-116 9.01863e-116 9.07857e-116 9.49773e-116 1.04895e-115 1.16438e-115 1.21706e-115 1.16122e-115 1.02168e-115 8.62365e-116 7.30221e-116 6.34012e-116 5.59545e-116 4.88052e-116 4.09251e-116 3.24884e-116 2.40988e-116 1.6331e-116 9.86674e-117 5.23431e-117 2.42802e-117 9.88081e-118 3.55257e-118 1.13797e-118 3.27494e-119 8.53474e-120 2.02868e-120 4.42657e-121 8.91762e-122 1.66716e-122 2.90558e-123 4.74005e-124 7.26464e-125 1.04943e-125 1.43314e-126 1.85519e-127 2.28201e-128 2.6733e-129 2.9886e-130 3.19444e-131 3.27027e-132 3.21168e-133 3.0303e-134 2.75071e-135 2.4053e-136 2.02852e-137 1.65184e-138 1.30014e-139 9.90088e-141 7.30176e-142 5.21954e-143 3.61949e-144 2.43676e-145 1.59387e-146 1.01361e-147 6.27134e-149 3.77741e-150 2.21634e-151 1.26746e-152 7.06858e-154 3.84639e-155 2.04323e-156 1.06006e-157 5.37396e-159 2.66318e-160 1.29072e-161 6.12014e-163 2.84029e-164 1.29062e-165 5.74406e-167 2.50037e-168 0 
0 8.56333e-235 3.90921e-233 1.7623e-231 7.84822e-230 3.4524e-228 1.49997e-226 6.43595e-225 2.72685e-223 1.14073e-221 4.71111e-220 1.9206e-218 7.72803e-217 3.0688e-215 1.20249e-213 4.64892e-212 1.77306e-210 6.67019e-209 2.47478e-207 9.05434e-206 3.26616e-204 1.16149e-202 4.07119e-201 1.40634e-199 4.78691e-198 1.60525e-196 5.30246e-195 1.725e-193 5.52583e-192 1.74271e-190 5.40991e-189 1.65276e-187 4.96815e-186 1.46913e-184 4.27279e-183 1.22196e-181 3.43556e-180 9.49368e-179 2.57789e-177 6.87672e-176 1.80166e-174 4.63478e-173 1.17039e-171 2.90037e-170 7.05141e-169 1.68138e-167 3.93086e-166 9.00747e-165 2.02239e-163 4.44761e-162 9.57697e-161 2.01841e-159 4.16197e-158 8.3931e-157 1.65461e-155 3.18736e-154 5.99688e-153 1.10147e-151 1.97403e-150 3.45019e-149 5.8776e-148 9.75387e-147 1.57584e-145 2.477e-144 3.78558e-143 5.62116e-142 8.10371e-141 1.13336e-139 1.53643e-138 2.01718e-137 2.56246e-136 3.14645e-135 3.73058e-134 4.26618e-133 4.69988e-132 4.98152e-131 5.07299e-130 4.95622e-129 4.63794e-128 4.14988e-127 3.54379e-126 2.88226e-125 2.22774e-124 1.6323e-123 1.13078e-122 7.38432e-122 4.5308e-121 2.6025e-120 1.39377e-119 6.9278e-119 3.17968e-118 1.33982e-117 5.14935e-117 1.79193e-116 5.60003e-116 1.55762e-115 3.81957e-115 8.18225e-115 1.5203e-114 2.44507e-114 3.42807e-114 4.26685e-114 4.82496e-114 5.03407e-114 4.86935e-114 4.38456e-114 3.7533e-114 3.19172e-114 2.82191e-114 2.64459e-114 2.61531e-114 2.69476e-114 2.84012e-114 3.00152e-114 3.15477e-114 3.34431e-114 3.63798e-114 4.02353e-114 4.38437e-114 4.57463e-114 4.51472e-114 4.25271e-114 3.96695e-114 3.84689e-114 3.93564e-114 4.1049e-114 4.1898e-114 4.15785e-114 4.10497e-114 4.10138e-114 4.11106e-114 4.08248e-114 4.05881e-114 4.13999e-114 4.3809e-114 4.75799e-114 5.18521e-114 5.52723e-114 5.64499e-114 5.46685e-114 5.04996e-114 4.57643e-114 4.23153e-114 4.05249e-114 3.92834e-114 3.75383e-114 3.5349e-114 3.35297e-114 3.26817e-114 3.29167e-114 3.38725e-114 3.4703e-114 3.48946e-114 3.51505e-114 3.64873e-114 3.86107e-114 3.97655e-114 3.81688e-114 3.36215e-114 2.77312e-114 2.24995e-114 1.90217e-114 1.74116e-114 1.74405e-114 1.89194e-114 2.16369e-114 2.53227e-114 2.9783e-114 3.47154e-114 3.91088e-114 4.15646e-114 4.16074e-114 4.01274e-114 3.83607e-114 3.66372e-114 3.45704e-114 3.21094e-114 2.97899e-114 2.82293e-114 2.76362e-114 2.7915e-114 2.89918e-114 3.07294e-114 3.26499e-114 3.40278e-114 3.44996e-114 3.47379e-114 3.63474e-114 4.01375e-114 4.45427e-114 4.65507e-114 4.44157e-114 3.90836e-114 3.2992e-114 2.79352e-114 2.42508e-114 2.13985e-114 1.86622e-114 1.56488e-114 1.24235e-114 9.2161e-115 6.24665e-115 3.77557e-115 2.00421e-115 9.30471e-116 3.7904e-116 1.36437e-116 4.37583e-117 1.26098e-117 3.29074e-118 7.83312e-119 1.71169e-119 3.45346e-120 6.46611e-121 1.12867e-121 1.84414e-122 2.83079e-123 4.09576e-124 5.60227e-125 7.2638e-126 8.94946e-127 1.05011e-127 1.17588e-128 1.25894e-129 1.29096e-130 1.26994e-131 1.20022e-132 1.0913e-133 9.55867e-135 8.07495e-136 6.58659e-137 5.19299e-138 3.96133e-139 2.92641e-140 2.09547e-141 1.4556e-142 9.81644e-144 6.43194e-145 4.09743e-146 2.53952e-147 1.53229e-148 9.00612e-150 5.15935e-151 2.88238e-152 1.57121e-153 8.36104e-155 4.34549e-156 2.20684e-157 1.09558e-158 5.31918e-160 2.52667e-161 1.17469e-162 5.34727e-164 2.38413e-165 1.03966e-166 0 
0 3.82841e-233 1.74427e-231 7.84795e-230 3.4882e-228 1.53146e-226 6.64087e-225 2.84389e-223 1.2026e-221 5.02114e-220 2.0697e-218 8.42142e-217 3.38209e-215 1.34046e-213 5.24248e-212 2.02292e-210 7.70061e-209 2.89145e-207 1.07076e-205 3.91012e-204 1.40783e-202 4.99702e-201 1.74824e-199 6.02779e-198 2.0479e-196 6.85464e-195 2.26002e-193 7.33864e-192 2.34649e-190 7.38657e-189 2.28879e-187 6.97949e-186 2.09416e-184 6.18127e-183 1.79446e-181 5.12255e-180 1.43759e-178 3.96535e-177 1.07479e-175 2.86189e-174 7.48446e-173 1.92191e-171 4.84452e-170 1.19838e-168 2.9083e-167 6.92231e-166 1.61547e-164 3.69522e-163 8.28195e-162 1.81812e-160 3.90802e-159 8.22188e-158 1.69238e-156 3.40689e-155 6.70458e-154 1.28928e-152 2.4215e-151 4.43992e-150 7.94334e-149 1.38593e-147 2.35694e-146 3.90461e-145 6.29746e-144 9.88181e-143 1.50765e-141 2.23488e-140 3.21643e-139 4.49078e-138 6.07764e-137 7.96591e-136 1.01022e-134 1.23838e-133 1.46584e-132 1.6735e-131 1.84058e-130 1.94766e-129 1.98017e-128 1.93142e-127 1.80445e-126 1.61194e-125 1.3743e-124 1.11596e-123 8.61168e-123 6.29993e-122 4.35742e-121 2.84109e-120 1.74051e-119 9.98225e-119 5.33793e-118 2.64931e-117 1.21419e-116 5.10893e-116 1.96081e-115 6.81436e-115 2.12689e-114 5.90885e-114 1.44742e-113 3.09782e-113 5.75174e-113 9.2459e-113 1.29598e-112 1.61297e-112 1.82395e-112 1.90301e-112 1.84077e-112 1.65759e-112 1.41904e-112 1.2067e-112 1.06678e-112 9.99678e-113 9.88633e-113 1.0187e-112 1.07362e-112 1.13457e-112 1.1925e-112 1.26419e-112 1.3752e-112 1.52085e-112 1.65717e-112 1.72911e-112 1.70665e-112 1.60796e-112 1.5003e-112 1.45504e-112 1.48843e-112 1.55215e-112 1.58413e-112 1.57213e-112 1.5522e-112 1.55076e-112 1.55432e-112 1.54354e-112 1.53472e-112 1.5655e-112 1.65662e-112 1.79919e-112 1.96066e-112 2.08989e-112 2.13438e-112 2.06712e-112 1.90974e-112 1.73094e-112 1.60054e-112 1.53262e-112 1.48543e-112 1.41935e-112 1.3366e-112 1.26786e-112 1.23581e-112 1.24467e-112 1.28072e-112 1.31206e-112 1.3194e-112 1.32918e-112 1.37961e-112 1.45956e-112 1.50288e-112 1.44239e-112 1.2706e-112 1.04808e-112 8.50353e-113 7.18833e-113 6.57929e-113 6.59024e-113 7.14953e-113 8.17707e-113 9.57105e-113 1.12581e-112 1.31228e-112 1.4783e-112 1.57116e-112 1.57292e-112 1.51711e-112 1.4503e-112 1.385e-112 1.30675e-112 1.21367e-112 1.12597e-112 1.06691e-112 1.04443e-112 1.05495e-112 1.09569e-112 1.1614e-112 1.23402e-112 1.28618e-112 1.30423e-112 1.31358e-112 1.37465e-112 1.51779e-112 1.68393e-112 1.75957e-112 1.6789e-112 1.47754e-112 1.24736e-112 1.05613e-112 9.16689e-113 8.08724e-113 7.05225e-113 5.91346e-113 4.69489e-113 3.4831e-113 2.36129e-113 1.42776e-113 7.58388e-114 3.52384e-114 1.43693e-114 5.17821e-115 1.66282e-115 4.79804e-116 1.25386e-116 2.98887e-117 6.54079e-118 1.32162e-118 2.47829e-119 4.33254e-120 7.08995e-121 1.09003e-121 1.57962e-122 2.16409e-123 2.81043e-124 3.46822e-125 4.07615e-126 4.57183e-127 4.90281e-128 5.03579e-129 4.96199e-130 4.69737e-131 4.27823e-132 3.75357e-133 3.17626e-134 2.59519e-135 2.04956e-136 1.5661e-137 1.15892e-138 8.31266e-140 5.78419e-141 3.90751e-142 2.56469e-143 1.63664e-144 1.01612e-145 6.14164e-147 3.61607e-148 2.07515e-149 1.16135e-150 6.34171e-152 3.38061e-153 1.7601e-154 8.95433e-156 4.45322e-157 2.16592e-158 1.03066e-159 4.80024e-161 2.189e-162 9.77733e-164 4.27126e-165 0 
0 1.69063e-231 7.6877e-230 3.45216e-228 1.53141e-226 6.71044e-225 2.90421e-223 1.2413e-221 5.23897e-220 2.18319e-218 8.98175e-217 3.64759e-215 1.46209e-213 5.78381e-212 2.25771e-210 8.69532e-209 3.30375e-207 1.23815e-205 4.57645e-204 1.66805e-202 5.99449e-201 2.12371e-199 7.41605e-198 2.55221e-196 8.6548e-195 2.8915e-193 9.51576e-192 3.08419e-190 9.8433e-189 3.09287e-187 9.56587e-186 2.91168e-184 8.72034e-183 2.56924e-181 7.44506e-180 2.12142e-178 5.94273e-177 1.63623e-175 4.42689e-174 1.17664e-172 3.07162e-171 7.87331e-170 1.98105e-168 4.89172e-167 1.18503e-165 2.81557e-164 6.55903e-163 1.49765e-161 3.35067e-160 7.34269e-159 1.57552e-157 3.30881e-156 6.79884e-155 1.36627e-153 2.68404e-152 5.15237e-151 9.66026e-150 1.76818e-148 3.15793e-147 5.50034e-146 9.33791e-145 1.5443e-143 2.48643e-142 3.89498e-141 5.93239e-140 8.77899e-139 1.26133e-137 1.75809e-136 2.37532e-135 3.10809e-134 3.93503e-133 4.8157e-132 5.69073e-131 6.48617e-130 7.12196e-129 7.52389e-128 7.63693e-127 7.43678e-126 6.93659e-125 6.18656e-124 5.26601e-123 4.26928e-122 3.28929e-121 2.4025e-120 1.65911e-119 1.08008e-118 6.60661e-118 3.78327e-117 2.02003e-116 1.00109e-115 4.58138e-115 1.92496e-114 7.37784e-114 2.5606e-113 7.98204e-113 2.21494e-112 5.41992e-112 1.15893e-111 2.15026e-111 3.45485e-111 4.84139e-111 6.02515e-111 6.81328e-111 7.10865e-111 6.87622e-111 6.19229e-111 5.30148e-111 4.50814e-111 3.98498e-111 3.73409e-111 3.69293e-111 3.80538e-111 4.01044e-111 4.23788e-111 4.45425e-111 4.72219e-111 5.13678e-111 5.68052e-111 6.18941e-111 6.45821e-111 6.37502e-111 6.00773e-111 5.60692e-111 5.43834e-111 5.56248e-111 5.79949e-111 5.91854e-111 5.87396e-111 5.79974e-111 5.79411e-111 5.80702e-111 5.76685e-111 5.73433e-111 5.8497e-111 6.19024e-111 6.72286e-111 7.32593e-111 7.80844e-111 7.97449e-111 7.72355e-111 7.13646e-111 6.46932e-111 5.98218e-111 5.72755e-111 5.55034e-111 5.30311e-111 4.99406e-111 4.73733e-111 4.61764e-111 4.6507e-111 4.78505e-111 4.90192e-111 4.92968e-111 4.96663e-111 5.15464e-111 5.45205e-111 5.61259e-111 5.38617e-111 4.74482e-111 3.91418e-111 3.17573e-111 2.68427e-111 2.45661e-111 2.46073e-111 2.66973e-111 3.05367e-111 3.57463e-111 4.20515e-111 4.90175e-111 5.52171e-111 5.86865e-111 5.8758e-111 5.66783e-111 5.41816e-111 5.17368e-111 4.88094e-111 4.53309e-111 4.20538e-111 3.98456e-111 3.90033e-111 3.93959e-111 4.09187e-111 4.33744e-111 4.60877e-111 4.80388e-111 4.87208e-111 4.90831e-111 5.13728e-111 5.67149e-111 6.29066e-111 6.57216e-111 6.27098e-111 5.51956e-111 4.66016e-111 3.94552e-111 3.42406e-111 3.02023e-111 2.6334e-111 2.20813e-111 1.7532e-111 1.30079e-111 8.82012e-112 5.33523e-112 2.8357e-112 1.3187e-112 5.38276e-113 1.94197e-113 6.24373e-114 1.80398e-114 4.72075e-115 1.1269e-115 2.46967e-116 4.99759e-117 9.38559e-118 1.6433e-118 2.69333e-119 4.14729e-120 6.01956e-121 8.25996e-122 1.07441e-122 1.32802e-123 1.56333e-124 1.7563e-125 1.88654e-126 1.9409e-127 1.91561e-128 1.81646e-129 1.65714e-130 1.45635e-131 1.23442e-132 1.01029e-133 7.99229e-135 6.11738e-136 4.53456e-137 3.25808e-138 2.27094e-139 1.53676e-140 1.01038e-141 6.4588e-143 4.01691e-144 2.43211e-145 1.43446e-146 8.24625e-148 4.62303e-149 2.52888e-150 1.35044e-151 7.04336e-153 3.58954e-154 1.78832e-155 8.71328e-157 4.15359e-158 1.93794e-159 8.85312e-161 3.96136e-162 1.73362e-163 0 
0 7.37373e-230 3.34648e-228 1.49981e-226 6.64039e-225 2.90411e-223 1.25444e-221 5.35129e-220 2.2542e-218 9.37567e-217 3.84981e-215 1.56046e-213 6.24298e-212 2.46492e-210 9.60357e-209 3.69169e-207 1.39998e-205 5.23684e-204 1.93199e-202 7.02857e-201 2.52113e-199 8.91506e-198 3.10734e-196 1.06739e-194 3.61288e-193 1.20479e-191 3.95755e-190 1.28033e-188 4.07866e-187 1.2792e-185 3.94913e-184 1.19984e-182 3.58689e-181 1.05486e-179 3.05117e-178 8.67832e-177 2.42664e-175 6.66925e-174 1.80113e-172 4.77867e-171 1.24523e-169 3.18609e-168 8.00237e-167 1.97246e-165 4.76979e-164 1.13126e-162 2.63067e-161 5.99607e-160 1.33912e-158 2.92939e-157 6.2745e-156 1.31542e-154 2.69816e-153 5.41263e-152 1.06146e-150 2.03408e-149 3.80711e-148 6.95633e-147 1.24024e-145 2.15648e-144 3.65476e-143 6.03388e-142 9.69834e-141 1.51665e-139 2.30607e-138 3.40683e-137 4.88652e-136 6.79954e-135 9.17131e-134 1.19805e-132 1.51427e-131 1.85008e-130 2.18262e-129 2.48359e-128 2.72255e-127 2.87147e-126 2.90985e-125 2.82898e-124 2.63443e-123 2.34579e-122 1.99353e-121 1.61363e-120 1.24126e-119 9.05187e-119 6.24124e-118 4.05673e-117 2.47761e-116 1.41664e-115 7.55266e-115 3.73744e-114 1.70792e-113 7.16601e-113 2.74275e-112 9.50659e-112 2.95972e-111 8.20334e-111 2.00523e-110 4.28386e-110 7.9425e-110 1.27552e-109 1.78699e-109 2.22377e-109 2.51466e-109 2.62369e-109 2.53793e-109 2.28562e-109 1.95695e-109 1.66408e-109 1.47081e-109 1.37812e-109 1.36297e-109 1.40453e-109 1.48017e-109 1.56403e-109 1.64388e-109 1.74282e-109 1.89581e-109 2.09637e-109 2.28407e-109 2.38331e-109 2.35287e-109 2.21781e-109 2.07038e-109 2.00834e-109 2.05394e-109 2.14105e-109 2.18483e-109 2.16847e-109 2.14116e-109 2.13898e-109 2.14361e-109 2.12882e-109 2.11698e-109 2.1597e-109 2.28545e-109 2.48206e-109 2.7046e-109 2.8826e-109 2.94384e-109 2.85134e-109 2.63495e-109 2.389e-109 2.20919e-109 2.11488e-109 2.04912e-109 1.95773e-109 1.84367e-109 1.74895e-109 1.70479e-109 1.71696e-109 1.76644e-109 1.8095e-109 1.81987e-109 1.83366e-109 1.90291e-109 2.01223e-109 2.07101e-109 1.98726e-109 1.75069e-109 1.44432e-109 1.17183e-109 9.9037e-110 9.06293e-110 9.07822e-110 9.84991e-110 1.12673e-109 1.3191e-109 1.55194e-109 1.80906e-109 2.03781e-109 2.16589e-109 2.16873e-109 2.09216e-109 1.99998e-109 1.90954e-109 1.80133e-109 1.67288e-109 1.5519e-109 1.47031e-109 1.43914e-109 1.45361e-109 1.50985e-109 1.60052e-109 1.70069e-109 1.7728e-109 1.79827e-109 1.81212e-109 1.89694e-109 2.09392e-109 2.32191e-109 2.42543e-109 2.31433e-109 2.03727e-109 1.72023e-109 1.45636e-109 1.26369e-109 1.11445e-109 9.71592e-110 8.14682e-110 6.4687e-110 4.79987e-110 3.2552e-110 1.96982e-110 1.04762e-110 4.87588e-111 1.99226e-111 7.1957e-112 2.31638e-112 6.7014e-113 1.75605e-113 4.19782e-114 9.21315e-115 1.86712e-115 3.51177e-116 6.15806e-117 1.01085e-117 1.55898e-118 2.26634e-119 3.11477e-120 4.05801e-121 5.02396e-122 5.92373e-123 6.66575e-124 7.17173e-125 7.3905e-126 7.30625e-127 6.93955e-128 6.3414e-129 5.58231e-130 4.73959e-131 3.88555e-132 3.07898e-133 2.36066e-134 1.75283e-135 1.26155e-136 8.80819e-138 5.97075e-139 3.93235e-140 2.51804e-141 1.56874e-142 9.51462e-144 5.62144e-145 3.2372e-146 1.818e-147 9.96211e-149 5.32915e-150 2.78434e-151 1.42149e-152 7.09437e-154 3.4627e-155 1.65358e-156 7.72878e-158 3.53701e-159 1.58546e-160 6.95082e-162 0 
0 3.17606e-228 1.43862e-226 6.43503e-225 2.84358e-223 1.24121e-221 5.35109e-220 2.27832e-218 9.57886e-217 3.97641e-215 1.62966e-213 6.59296e-212 2.63264e-210 1.03747e-208 4.03442e-207 1.54793e-205 5.85906e-204 2.18753e-202 8.05513e-201 2.92496e-199 1.04721e-197 3.69615e-196 1.28589e-194 4.40887e-193 1.48954e-191 4.95798e-190 1.6256e-188 5.24937e-187 1.66918e-185 5.22547e-184 1.61024e-182 4.88335e-181 1.4572e-179 4.27764e-178 1.23505e-176 3.50642e-175 9.78695e-174 2.68493e-172 7.238e-171 1.91689e-169 4.98608e-168 1.27347e-166 3.19281e-165 7.85574e-164 1.89629e-162 4.4895e-161 1.04215e-159 2.37117e-158 5.28628e-157 1.15436e-155 2.4682e-154 5.16543e-153 1.05767e-151 2.11803e-150 4.14641e-149 7.93196e-148 1.48203e-146 2.70328e-145 4.81136e-144 8.35142e-143 1.41296e-141 2.32876e-140 3.73666e-139 5.83356e-138 8.85487e-137 1.30595e-135 1.87e-134 2.59772e-133 3.49796e-132 4.56174e-131 5.7562e-130 7.02104e-129 8.26934e-128 9.39411e-127 1.0281e-125 1.08257e-124 1.09525e-123 1.06308e-122 9.88369e-122 8.78664e-121 7.45525e-120 6.0249e-119 4.62722e-118 3.36911e-117 2.31937e-116 1.50523e-115 9.17896e-115 5.24039e-114 2.78967e-113 1.37844e-112 6.29003e-112 2.63542e-111 1.00731e-110 3.48681e-110 1.08421e-109 3.00154e-109 7.32927e-109 1.56438e-108 2.89838e-108 4.65238e-108 6.51635e-108 8.10855e-108 9.16926e-108 9.56688e-108 9.2543e-108 8.3347e-108 7.13662e-108 6.06849e-108 5.36314e-108 5.02484e-108 4.96976e-108 5.12148e-108 5.39718e-108 5.70263e-108 5.99372e-108 6.35468e-108 6.91244e-108 7.64328e-108 8.32728e-108 8.68924e-108 8.57921e-108 8.08856e-108 7.5528e-108 7.32724e-108 7.49273e-108 7.80905e-108 7.96813e-108 7.90884e-108 7.80956e-108 7.80124e-108 7.8176e-108 7.76379e-108 7.72123e-108 7.87748e-108 8.33626e-108 9.05322e-108 9.86454e-108 1.05133e-107 1.07364e-107 1.03995e-107 9.61162e-108 8.71584e-108 8.0601e-108 7.71501e-108 7.47397e-108 7.14015e-108 6.72434e-108 6.37906e-108 6.21807e-108 6.26236e-108 6.44236e-108 6.59911e-108 6.63739e-108 6.68822e-108 6.9402e-108 7.33717e-108 7.5498e-108 7.24374e-108 6.38162e-108 5.26521e-108 4.27182e-108 3.60992e-108 3.30315e-108 3.30877e-108 3.59027e-108 4.10725e-108 4.80903e-108 5.65849e-108 6.59612e-108 7.42993e-108 7.89709e-108 7.90818e-108 7.62969e-108 7.29344e-108 6.96292e-108 6.56775e-108 6.09917e-108 5.65787e-108 5.36009e-108 5.24608e-108 5.29878e-108 5.50401e-108 5.83475e-108 6.20009e-108 6.4634e-108 6.55734e-108 6.60955e-108 6.91997e-108 7.63757e-108 8.46698e-108 8.84307e-108 8.43813e-108 7.42893e-108 6.27341e-108 5.3109e-108 4.60756e-108 4.06268e-108 3.54149e-108 2.96951e-108 2.35796e-108 1.74978e-108 1.1869e-108 7.18508e-109 3.82365e-109 1.78109e-109 7.2847e-110 2.63408e-110 8.48982e-111 2.45934e-111 6.45329e-112 1.54482e-112 3.3954e-113 6.8912e-114 1.29808e-114 2.27971e-115 3.74794e-116 5.78923e-117 8.4292e-118 1.16031e-118 1.5141e-119 1.87752e-120 2.21734e-121 2.49914e-122 2.69323e-123 2.77993e-124 2.75276e-125 2.61892e-126 2.39715e-127 2.11372e-128 1.79762e-129 1.47617e-130 1.17171e-131 8.99869e-133 6.69296e-134 4.82523e-135 3.37473e-136 2.29151e-137 1.51177e-138 9.69709e-140 6.05167e-141 3.67674e-142 2.17605e-143 1.25528e-144 7.06188e-146 3.87644e-147 2.07728e-148 1.08722e-149 5.56033e-151 2.77992e-152 1.35925e-153 6.50239e-155 3.04457e-156 1.39579e-157 6.26775e-159 2.75271e-160 0 
0 1.35084e-226 6.10687e-225 2.72636e-223 1.20242e-221 5.23838e-220 2.25403e-218 9.57849e-217 4.01941e-215 1.66536e-213 6.81215e-212 2.75068e-210 1.09629e-208 4.31207e-207 1.67366e-205 6.40938e-204 2.42144e-202 9.02368e-201 3.31654e-199 1.20204e-197 4.29555e-196 1.5133e-194 5.25496e-193 1.7984e-191 6.06463e-190 2.0149e-188 6.5942e-187 2.12546e-185 6.74606e-184 2.10802e-182 6.48404e-181 1.96281e-179 5.84637e-178 1.7131e-176 4.93712e-175 1.39916e-173 3.8982e-172 1.0675e-170 2.87256e-169 7.59395e-168 1.97175e-166 5.02696e-165 1.25809e-163 3.08996e-162 7.44559e-161 1.75963e-159 4.07742e-158 9.26087e-157 2.06098e-155 4.49265e-154 9.58916e-153 2.0033e-151 4.09478e-150 8.18574e-149 1.59972e-147 3.05492e-146 5.69803e-145 1.03755e-143 1.84349e-142 3.19439e-141 5.39527e-140 8.87703e-139 1.42196e-137 2.21616e-136 3.35826e-135 4.94452e-134 7.06821e-133 9.80234e-132 1.31773e-130 1.71561e-129 2.16123e-128 2.63176e-127 3.09455e-126 3.50968e-125 3.83474e-124 4.03129e-123 4.07188e-122 3.94588e-121 3.66267e-120 3.2509e-119 2.75391e-118 2.22202e-117 1.70385e-116 1.23864e-115 8.51383e-115 5.5168e-114 3.35904e-113 1.91482e-112 1.01782e-111 5.02189e-111 2.28827e-110 9.57397e-110 3.65437e-109 1.2633e-108 3.92327e-108 1.08487e-107 2.6463e-107 5.64325e-107 1.04481e-106 1.67629e-106 2.34733e-106 2.92068e-106 3.30275e-106 3.446e-106 3.33345e-106 3.00236e-106 2.57094e-106 2.18612e-106 1.93183e-106 1.80986e-106 1.79008e-106 1.8448e-106 1.94406e-106 2.05397e-106 2.1588e-106 2.28887e-106 2.48974e-106 2.75282e-106 2.99904e-106 3.12946e-106 3.09018e-106 2.9141e-106 2.72178e-106 2.64078e-106 2.70011e-106 2.81357e-106 2.87067e-106 2.84944e-106 2.81379e-106 2.81066e-106 2.81637e-106 2.79703e-106 2.78191e-106 2.83837e-106 3.00371e-106 3.26199e-106 3.55417e-106 3.78774e-106 3.86806e-106 3.74686e-106 3.46344e-106 3.14115e-106 2.90493e-106 2.7802e-106 2.69292e-106 2.57248e-106 2.42272e-106 2.29839e-106 2.24041e-106 2.25633e-106 2.32102e-106 2.37739e-106 2.39134e-106 2.40985e-106 2.50042e-106 2.64282e-106 2.71878e-106 2.60829e-106 2.29793e-106 1.89606e-106 1.53831e-106 1.29981e-106 1.18924e-106 1.19128e-106 1.29272e-106 1.47899e-106 1.73189e-106 2.03803e-106 2.37579e-106 2.67604e-106 2.84436e-106 2.84862e-106 2.74856e-106 2.6274e-106 2.50808e-106 2.36552e-106 2.19666e-106 2.03765e-106 1.93028e-106 1.88909e-106 1.90805e-106 1.98202e-106 2.10121e-106 2.23283e-106 2.32781e-106 2.36204e-106 2.38146e-106 2.49368e-106 2.75192e-106 3.04998e-106 3.18495e-106 3.03917e-106 2.67602e-106 2.25999e-106 1.91317e-106 1.65955e-106 1.46303e-106 1.27519e-106 1.06923e-106 8.49069e-107 6.30124e-107 4.27502e-107 2.58895e-107 1.37859e-107 6.42692e-108 2.63122e-108 9.52494e-109 3.0737e-109 8.91549e-110 2.34259e-110 5.61569e-111 1.23606e-111 2.51237e-112 4.73957e-113 8.33636e-114 1.37264e-114 2.12353e-115 3.09673e-116 4.26951e-117 5.58017e-118 6.93061e-119 8.19821e-120 9.25507e-121 9.99006e-122 1.03285e-122 1.02444e-123 9.76233e-125 8.95044e-126 7.90525e-127 6.73425e-128 5.53928e-129 4.40418e-130 3.38808e-131 2.52421e-132 1.82288e-133 1.27707e-134 8.68634e-136 5.74041e-137 3.68841e-138 2.30578e-139 1.4033e-140 8.31965e-142 4.80759e-143 2.70931e-144 1.48979e-145 7.99728e-147 4.19298e-148 2.14814e-149 1.07586e-150 5.26966e-152 2.52535e-153 1.18451e-154 5.44004e-156 2.44716e-157 1.07666e-158 0 