# vtk DataFile Version 3.0
Gray-Scott Simulation Output
ASCII
DATASET STRUCTURED_POINTS
DIMENSIONS 256 256 1
SPACING 1.0 1.0 1.0
ORIGIN 0 0 0
POINT_DATA 65536
SCALARS u double
LOOKUP_TABLE default
0 0 0 0 0 0 0 0 0 0 0 0 0 0 0 0 0 0 0 0 0 0 0 0 0 0 0 0 0 0 0 0 0 0 0 0 0 0 0 0 0 0 0 0 0 0 0 0 0 0 0 0 0 0 0 0 0 0 0 0 0 0 0 0 0 0 0 0 0 0 0 0 0 0 0 0 0 0 0 0 0 0 0 0 0 0 0 0 0 0 0 0 0 0 0 0 0 0 0 0 0 0 0 0 0 0 0 0 0 0 0 0 0 0 0 0 0 0 0 0 0 0 0 0 0 0 0 0 0 0 0 0 0 0 0 0 0 0 0 0 0 0 0 0 0 0 0 0 0 0 0 0 0 0 0 0 0 0 0 0 0 0 0 0 0 0 0 0 0 0 0 0 0 0 0 0 0 0 0 0 0 0 0 0 0 0 0 0 0 0 0 0 0 0 0 0 0 0 0 0 0 0 0 0 0 0 0 0 0 0 0 0 0 0 0 0 0 0 0 0 0 0 0 0 0 0 0 0 0 0 0 0 0 0 0 0 0 0 0 0 0 0 0 0 0 0 0 0 0 0 0 0 0 0 0 0 
0 8.34413e-110 5.63615e-109 3.68947e-108 2.39015e-107 1.53296e-106 9.73287e-106 6.11673e-105 3.80474e-104 2.34215e-103 1.42675e-102 8.59962e-102 5.12822e-101 3.02527e-100 1.76533e-99 1.01884e-98 5.81512e-98 3.28195e-97 1.83139e-96 1.0103e-95 5.50925e-95 2.9693e-94 1.58155e-93 8.32381e-93 4.32831e-92 2.22339e-91 1.12812e-90 5.65296e-90 2.79718e-89 1.36656e-88 6.59072e-88 3.13743e-87 1.47395e-86 6.83275e-86 3.12494e-85 1.40978e-84 6.27273e-84 2.7522e-83 1.19056e-82 5.07679e-82 2.13364e-81 8.83616e-81 3.60527e-80 1.44897e-79 5.73511e-79 2.23512e-78 8.57521e-78 3.23806e-77 1.20317e-76 4.39819e-76 1.58136e-75 5.59111e-75 1.94345e-74 6.63973e-74 2.22908e-73 7.35169e-73 2.38137e-72 7.57405e-72 2.36471e-71 7.24526e-71 2.1779e-70 6.42104e-70 1.85622e-69 5.25999e-69 1.46063e-68 3.97336e-68 1.05854e-67 2.76091e-67 7.04776e-67 1.7602e-66 4.29979e-66 1.02697e-65 2.39746e-65 5.46868e-65 1.21844e-64 2.65077e-64 5.62911e-64 1.16644e-63 2.35776e-63 4.6474e-63 8.93012e-63 1.67228e-62 3.05095e-62 5.42148e-62 9.38084e-62 1.58016e-61 2.59061e-61 4.13294e-61 6.41511e-61 9.68682e-61 1.42284e-60 2.03286e-60 2.82519e-60 3.81951e-60 5.02403e-60 6.4311e-60 8.01404e-60 9.72629e-60 1.15036e-59 1.32691e-59 1.49415e-59 1.64447e-59 1.77172e-59 1.872e-59 1.94413e-59 1.98974e-59 2.01286e-59 2.0193e-59 2.01572e-59 2.00874e-59 2.00414e-59 2.00626e-59 2.01767e-59 2.0392e-59 2.0701e-59 2.10843e-59 2.15154e-59 2.19652e-59 2.24068e-59 2.28185e-59 2.3186e-59 2.35029e-59 2.37704e-59 2.39954e-59 2.41893e-59 2.43655e-59 2.45379e-59 2.47191e-59 2.49193e-59 2.51454e-59 2.53992e-59 2.56767e-59 2.59678e-59 2.62556e-59 2.65177e-59 2.67286e-59 2.68621e-59 2.68956e-59 2.68131e-59 2.66082e-59 2.62856e-59 2.58605e-59 2.53571e-59 2.48049e-59 2.42356e-59 2.36784e-59 2.31567e-59 2.26855e-59 2.22695e-59 2.19032e-59 2.15722e-59 2.1255e-59 2.09269e-59 2.05643e-59 2.01489e-59 1.96719e-59 1.91372e-59 1.85623e-59 1.7978e-59 1.74243e-59 1.69461e-59 1.65867e-59 1.63809e-59 1.63496e-59 1.64962e-59 1.68054e-59 1.72449e-59 1.77694e-59 1.83267e-59 1.88645e-59 1.93367e-59 1.97091e-59 1.99626e-59 2.00944e-59 2.01168e-59 2.00546e-59 1.99403e-59 1.98096e-59 1.96963e-59 1.96287e-59 1.96257e-59 1.96954e-59 1.98339e-59 2.00258e-59 2.02451e-59 2.04577e-59 2.06241e-59 2.07023e-59 2.06526e-59 2.04404e-59 2.00406e-59 1.94392e-59 1.86354e-59 1.76407e-59 1.64782e-59 1.51795e-59 1.37821e-59 1.23266e-59 1.08535e-59 9.4015e-60 8.00557e-60 6.69558e-60 5.49535e-60 4.42195e-60 3.48534e-60 2.68848e-60 2.02789e-60 1.49464e-60 1.07571e-60 7.55592e-61 5.17736e-61 3.45941e-61 2.25345e-61 1.43075e-61 8.85312e-62 5.33857e-62 3.13727e-62 1.79681e-62 1.00305e-62 5.4585e-63 2.89622e-63 1.4986e-63 7.56371e-64 3.72465e-64 1.79e-64 8.39763e-65 3.84699e-65 1.72137e-65 7.52571e-66 3.21568e-66 1.34334e-66 5.48803e-67 2.19333e-67 8.57787e-68 3.28381e-68 1.23093e-68 4.51932e-69 1.62566e-69 5.73102e-70 1.98064e-70 6.71232e-71 2.2313e-71 7.27751e-72 2.32951e-72 7.32011e-73 2.2587e-73 6.84536e-74 2.03818e-74 5.96353e-75 1.71508e-75 4.8494e-76 1.34836e-76 3.68667e-77 9.87836e-78 2.45165e-78 0 
0 5.63262e-109 3.80404e-108 2.48976e-107 1.61269e-106 1.03416e-105 6.56496e-105 4.1252e-104 2.56558e-103 1.57911e-102 9.61793e-102 5.79631e-101 3.45603e-100 2.03852e-99 1.18938e-98 6.86345e-98 3.91685e-97 2.21032e-96 1.23324e-95 6.80247e-95 3.709e-94 1.9988e-93 1.0645e-92 5.60195e-92 2.91266e-91 1.49603e-90 7.58989e-90 3.8029e-89 1.88156e-88 9.1915e-88 4.43255e-87 2.10988e-86 9.91135e-86 4.59422e-85 2.101e-84 9.4778e-84 4.2168e-83 1.85004e-82 8.0025e-82 3.41226e-81 1.43401e-80 5.93849e-80 2.42289e-79 9.7373e-79 3.85397e-78 1.50195e-77 5.76223e-77 2.17582e-76 8.08462e-76 2.95532e-75 1.06258e-74 3.75689e-74 1.30589e-73 4.46158e-73 1.49786e-72 4.94017e-72 1.60027e-71 5.08989e-71 1.58918e-70 4.86931e-70 1.46376e-69 4.31579e-69 1.2477e-68 3.53582e-68 9.81909e-68 2.67128e-67 7.11707e-67 1.85643e-66 4.73926e-66 1.18375e-65 2.89187e-65 6.90762e-65 1.61273e-64 3.67902e-64 8.19775e-64 1.78362e-63 3.78801e-63 7.85011e-63 1.58691e-62 3.12827e-62 6.01161e-62 1.12585e-61 2.05421e-61 3.65059e-61 6.31715e-61 1.06418e-60 1.74479e-60 2.78374e-60 4.32114e-60 6.52526e-60 9.58496e-60 1.36949e-59 1.90333e-59 2.57326e-59 3.38484e-59 4.33289e-59 5.39943e-59 6.55311e-59 7.75058e-59 8.94013e-59 1.0067e-58 1.10799e-58 1.19373e-58 1.26132e-58 1.30995e-58 1.34071e-58 1.35633e-58 1.3607e-58 1.35832e-58 1.35364e-58 1.35055e-58 1.35196e-58 1.35962e-58 1.37407e-58 1.39481e-58 1.42055e-58 1.4495e-58 1.47971e-58 1.50937e-58 1.53703e-58 1.56171e-58 1.58301e-58 1.60098e-58 1.61611e-58 1.62914e-58 1.64099e-58 1.65258e-58 1.66476e-58 1.67821e-58 1.69339e-58 1.71043e-58 1.72906e-58 1.7486e-58 1.76791e-58 1.78549e-58 1.79964e-58 1.80859e-58 1.81083e-58 1.80528e-58 1.79152e-58 1.76985e-58 1.74131e-58 1.70751e-58 1.67044e-58 1.63222e-58 1.59481e-58 1.55979e-58 1.52816e-58 1.50024e-58 1.47566e-58 1.45343e-58 1.43213e-58 1.41009e-58 1.38573e-58 1.3578e-58 1.32574e-58 1.28978e-58 1.25113e-58 1.21183e-58 1.1746e-58 1.14244e-58 1.11827e-58 1.10442e-58 1.10231e-58 1.11216e-58 1.13294e-58 1.16249e-58 1.19776e-58 1.23523e-58 1.2714e-58 1.30316e-58 1.32822e-58 1.34528e-58 1.35416e-58 1.35569e-58 1.35153e-58 1.34386e-58 1.33508e-58 1.32747e-58 1.32292e-58 1.32271e-58 1.32738e-58 1.33668e-58 1.34955e-58 1.36428e-58 1.37855e-58 1.38971e-58 1.39496e-58 1.39161e-58 1.37734e-58 1.35046e-58 1.31002e-58 1.25597e-58 1.18907e-58 1.11086e-58 1.02347e-58 9.29418e-59 8.31417e-59 7.32202e-59 6.34375e-59 5.40292e-59 4.51969e-59 3.7102e-59 2.98601e-59 2.35392e-59 1.816e-59 1.36996e-59 1.00982e-59 7.26851e-60 5.10584e-60 3.49874e-60 2.33788e-60 1.52293e-60 9.66939e-61 5.98317e-61 3.60789e-61 2.12016e-61 1.21424e-61 6.77809e-62 3.68839e-62 1.95691e-62 1.01251e-62 5.10999e-63 2.51617e-63 1.20914e-63 5.67216e-64 2.59825e-64 1.16252e-64 5.08209e-65 2.17138e-65 9.07017e-66 3.70524e-66 1.48072e-66 5.79056e-67 2.21662e-67 8.30842e-68 3.05024e-68 1.09715e-68 3.86764e-69 1.33659e-69 4.52947e-70 1.50562e-70 4.9105e-71 1.57179e-71 4.93896e-72 1.52393e-72 4.61846e-73 1.37511e-73 4.02341e-74 1.15711e-74 3.27173e-75 9.09699e-76 2.48731e-76 6.66478e-77 1.65412e-77 0 
0 3.68468e-108 2.48809e-107 1.6282e-106 1.05446e-105 6.76077e-105 4.29114e-104 2.69599e-103 1.67645e-102 1.0317e-101 6.28286e-101 3.78585e-100 2.25698e-99 1.33108e-98 7.76511e-98 4.48035e-97 2.55652e-96 1.44248e-95 8.04727e-95 4.43825e-94 2.41963e-93 1.3038e-92 6.94286e-92 3.65327e-91 1.89926e-90 9.75416e-90 4.94812e-89 2.479e-88 1.22642e-87 5.99056e-87 2.88866e-86 1.37488e-85 6.4581e-85 2.9933e-84 1.36878e-83 6.17428e-83 2.74685e-82 1.20505e-81 5.21228e-81 2.2224e-80 9.33925e-80 3.86739e-79 1.57782e-78 6.3409e-78 2.50963e-77 9.78017e-77 3.7521e-76 1.41678e-75 5.26423e-75 1.92433e-74 6.91888e-74 2.44629e-73 8.50336e-73 2.90524e-72 9.7538e-72 3.21706e-71 1.04214e-70 3.3148e-70 1.035e-69 3.17144e-69 9.53421e-69 2.81125e-68 8.12788e-68 2.3035e-67 6.39737e-67 1.74054e-66 4.63769e-66 1.20981e-65 3.08879e-65 7.71572e-65 1.88512e-64 4.50331e-64 1.0515e-63 2.39897e-63 5.34604e-63 1.16329e-62 2.47083e-62 5.12098e-62 1.03532e-61 2.04114e-61 3.92286e-61 7.34744e-61 1.34074e-60 2.38288e-60 4.1238e-60 6.94745e-60 1.13917e-59 1.81763e-59 2.82165e-59 4.26116e-59 6.25953e-59 8.94397e-59 1.24308e-58 1.68067e-58 2.21078e-58 2.83004e-58 3.52669e-58 4.28026e-58 5.06243e-58 5.83942e-58 6.57548e-58 7.23711e-58 7.79725e-58 8.23881e-58 8.55661e-58 8.75775e-58 8.85999e-58 8.8888e-58 8.87345e-58 8.84303e-58 8.82286e-58 8.83196e-58 8.88171e-58 8.97571e-58 9.11069e-58 9.2782e-58 9.4666e-58 9.66324e-58 9.85634e-58 1.00364e-57 1.01972e-57 1.03358e-57 1.04529e-57 1.05514e-57 1.06364e-57 1.07136e-57 1.07891e-57 1.08684e-57 1.09561e-57 1.10549e-57 1.11657e-57 1.1287e-57 1.1414e-57 1.15396e-57 1.1654e-57 1.17459e-57 1.18041e-57 1.18186e-57 1.17824e-57 1.16928e-57 1.15518e-57 1.1366e-57 1.1146e-57 1.09048e-57 1.06562e-57 1.04128e-57 1.0185e-57 9.9792e-58 9.79756e-58 9.63764e-58 9.49305e-58 9.35441e-58 9.21093e-58 9.05222e-58 8.87029e-58 8.66134e-58 8.42703e-58 8.17511e-58 7.91897e-58 7.67626e-58 7.46665e-58 7.30905e-58 7.21874e-58 7.20491e-58 7.26906e-58 7.40449e-58 7.59703e-58 7.82687e-58 8.07113e-58 8.30688e-58 8.51396e-58 8.67736e-58 8.78868e-58 8.84669e-58 8.8568e-58 8.82979e-58 8.77991e-58 8.72277e-58 8.67323e-58 8.64358e-58 8.64217e-58 8.67251e-58 8.73294e-58 8.8167e-58 8.9125e-58 9.00539e-58 9.07802e-58 9.11214e-58 9.09024e-58 8.99725e-58 8.82203e-58 8.5585e-58 8.20614e-58 7.77e-58 7.26002e-58 6.69001e-58 6.07636e-58 5.43673e-58 4.78896e-58 4.15001e-58 3.53528e-58 2.95797e-58 2.42867e-58 1.95498e-58 1.5414e-58 1.18934e-58 8.97337e-59 6.61519e-59 4.76193e-59 3.34532e-59 2.29249e-59 1.53191e-59 9.97933e-60 6.33614e-60 3.92061e-60 2.36411e-60 1.38922e-60 7.95591e-61 4.44089e-61 2.41643e-61 1.28198e-61 6.63253e-62 3.34709e-62 1.64799e-62 7.91874e-63 3.71442e-63 1.70132e-63 7.61151e-64 3.32717e-64 1.42145e-64 5.9371e-65 2.42516e-65 9.69086e-66 3.78944e-66 1.45049e-66 5.43639e-67 1.9957e-67 7.17796e-68 2.5302e-68 8.74343e-69 2.96284e-69 9.84819e-70 3.21179e-70 1.02801e-70 3.23016e-71 9.9665e-72 3.02039e-72 8.99279e-73 2.63115e-73 7.56693e-74 2.13954e-74 5.94897e-75 1.62658e-75 4.35848e-76 1.08173e-76 0 
0 2.3854e-107 1.61049e-106 1.05373e-105 6.82309e-105 4.37401e-104 2.7758e-103 1.74368e-102 1.08411e-101 6.67069e-101 4.06174e-100 2.44712e-99 1.45867e-98 8.60151e-98 5.01717e-97 2.89444e-96 1.65137e-95 9.31648e-95 5.19679e-94 2.8658e-93 1.56218e-92 8.41669e-92 4.48148e-91 2.35786e-90 1.22567e-89 6.29413e-89 3.19259e-88 1.59933e-87 7.91156e-87 3.86413e-86 1.86314e-85 8.86701e-85 4.16471e-84 1.93019e-83 8.82579e-83 3.98087e-82 1.77093e-81 7.76871e-81 3.36007e-80 1.43259e-79 6.01999e-79 2.49279e-78 1.01698e-77 4.08689e-77 1.61749e-76 6.30337e-76 2.41822e-75 9.13104e-75 3.39276e-74 1.24022e-73 4.45924e-73 1.57666e-72 5.48063e-72 1.87255e-71 6.28693e-71 2.07367e-70 6.71774e-70 2.13686e-69 6.67242e-69 2.04468e-68 6.14723e-68 1.8127e-67 5.24124e-67 1.48552e-66 4.12599e-66 1.12266e-65 2.99161e-65 7.80479e-65 1.99286e-64 4.97863e-64 1.21652e-63 2.90642e-63 6.78709e-63 1.54863e-62 3.45149e-62 7.51122e-62 1.59557e-61 3.30732e-61 6.68729e-61 1.31855e-60 2.53439e-60 4.74738e-60 8.66375e-60 1.53996e-59 2.6653e-59 4.49068e-59 7.36397e-59 1.17506e-58 1.82427e-58 2.75512e-58 4.04742e-58 5.78344e-58 8.03844e-58 1.08685e-57 1.42969e-57 1.83019e-57 2.28074e-57 2.7681e-57 3.27395e-57 3.77646e-57 4.25249e-57 4.68039e-57 5.04268e-57 5.3283e-57 5.53392e-57 5.66412e-57 5.73038e-57 5.74915e-57 5.73934e-57 5.71974e-57 5.7067e-57 5.71251e-57 5.74451e-57 5.80504e-57 5.89199e-57 5.99991e-57 6.12131e-57 6.24804e-57 6.37248e-57 6.48854e-57 6.59217e-57 6.68157e-57 6.75705e-57 6.82062e-57 6.87543e-57 6.92526e-57 6.97397e-57 7.02512e-57 7.08161e-57 7.14529e-57 7.21671e-57 7.29478e-57 7.3766e-57 7.45745e-57 7.53108e-57 7.59026e-57 7.62769e-57 7.63697e-57 7.61363e-57 7.55588e-57 7.46501e-57 7.34532e-57 7.20359e-57 7.0482e-57 6.88801e-57 6.73125e-57 6.58452e-57 6.45199e-57 6.33502e-57 6.23203e-57 6.1389e-57 6.04957e-57 5.95709e-57 5.85475e-57 5.73742e-57 5.60261e-57 5.45144e-57 5.28889e-57 5.1236e-57 4.96696e-57 4.83169e-57 4.72996e-57 4.67165e-57 4.66269e-57 4.70405e-57 4.79142e-57 4.91564e-57 5.06394e-57 5.22156e-57 5.37371e-57 5.50737e-57 5.61287e-57 5.68477e-57 5.72229e-57 5.7289e-57 5.71155e-57 5.67943e-57 5.64261e-57 5.61066e-57 5.59152e-57 5.59058e-57 5.61009e-57 5.649e-57 5.70295e-57 5.76466e-57 5.8245e-57 5.87129e-57 5.89325e-57 5.8791e-57 5.81909e-57 5.70604e-57 5.536e-57 5.30861e-57 5.0271e-57 4.69785e-57 4.32975e-57 3.93335e-57 3.52003e-57 3.10129e-57 2.6881e-57 2.29041e-57 1.9168e-57 1.57412e-57 1.26734e-57 9.99408e-58 7.71258e-58 5.81979e-58 4.29085e-58 3.08905e-58 2.17026e-58 1.48733e-58 9.93916e-59 6.47479e-59 4.11103e-59 2.54376e-59 1.53384e-59 9.01298e-60 5.1614e-60 2.88087e-60 1.56748e-60 8.31528e-61 4.30171e-61 2.17067e-61 1.06867e-61 5.1346e-62 2.40826e-62 1.10296e-62 4.93403e-63 2.15658e-63 9.21257e-64 3.84755e-64 1.57149e-64 6.27906e-65 2.45511e-65 9.39666e-66 3.52156e-66 1.29267e-66 4.64902e-67 1.63865e-67 5.66219e-68 1.9186e-68 6.37689e-69 2.07959e-69 6.65592e-70 2.0913e-70 6.45237e-71 1.95536e-71 5.82165e-72 1.70329e-72 4.89841e-73 1.385e-73 3.85095e-74 1.05293e-74 2.82139e-75 7.00244e-76 0 
0 1.52882e-106 1.03201e-105 6.75128e-105 4.37089e-104 2.80156e-103 1.77763e-102 1.11649e-101 6.94062e-101 4.27003e-100 2.59962e-99 1.566e-98 9.33327e-98 5.50289e-97 3.20935e-96 1.85126e-95 1.05607e-94 5.95722e-94 3.32257e-93 1.83203e-92 9.98548e-92 5.37935e-91 2.86393e-90 1.50665e-89 7.83114e-89 4.02109e-88 2.03944e-87 1.02156e-86 5.05302e-86 2.46777e-85 1.18977e-84 5.66191e-84 2.65913e-83 1.23232e-82 5.63445e-82 2.54126e-81 1.13044e-80 4.95879e-80 2.14465e-79 9.14351e-79 3.84211e-78 1.59092e-77 6.49027e-77 2.60816e-76 1.03223e-75 4.02256e-75 1.5432e-74 5.82704e-74 2.16513e-73 7.91469e-73 2.84579e-72 1.00621e-71 3.4978e-71 1.19512e-70 4.01267e-70 1.32359e-69 4.28804e-69 1.36407e-68 4.25961e-68 1.30539e-67 3.92488e-67 1.15746e-66 3.34695e-66 9.48705e-66 2.63524e-65 7.17105e-65 1.9111e-64 4.98638e-64 1.27335e-63 3.18148e-63 7.77478e-63 1.85772e-62 4.33867e-62 9.9009e-62 2.20692e-61 4.80336e-61 1.02048e-60 2.11553e-60 4.27805e-60 8.43615e-60 1.62172e-59 3.03812e-59 5.54505e-59 9.85723e-59 1.70623e-58 2.87505e-58 4.71502e-58 7.52434e-58 1.16823e-57 1.76445e-57 2.59222e-57 3.70426e-57 5.14878e-57 6.9617e-57 9.15799e-57 1.17236e-56 1.46099e-56 1.77319e-56 2.09723e-56 2.41913e-56 2.72407e-56 2.99818e-56 3.23027e-56 3.41326e-56 3.54503e-56 3.62849e-56 3.67102e-56 3.68312e-56 3.6769e-56 3.66439e-56 3.65603e-56 3.6597e-56 3.68008e-56 3.71867e-56 3.77415e-56 3.84301e-56 3.92049e-56 4.00137e-56 4.08081e-56 4.1549e-56 4.22105e-56 4.27814e-56 4.32635e-56 4.36696e-56 4.40198e-56 4.43381e-56 4.46493e-56 4.49761e-56 4.53367e-56 4.57431e-56 4.61988e-56 4.66968e-56 4.72186e-56 4.77342e-56 4.82037e-56 4.8581e-56 4.88195e-56 4.88784e-56 4.87293e-56 4.83606e-56 4.77806e-56 4.70168e-56 4.61125e-56 4.5121e-56 4.4099e-56 4.3099e-56 4.2163e-56 4.13177e-56 4.05716e-56 3.99147e-56 3.93206e-56 3.87506e-56 3.81602e-56 3.75067e-56 3.67572e-56 3.58959e-56 3.49299e-56 3.3891e-56 3.28346e-56 3.18335e-56 3.09688e-56 3.03184e-56 2.99456e-56 2.98881e-56 3.01523e-56 3.07104e-56 3.15042e-56 3.2452e-56 3.34594e-56 3.44319e-56 3.52864e-56 3.5961e-56 3.6421e-56 3.66612e-56 3.6704e-56 3.65936e-56 3.63888e-56 3.61537e-56 3.59497e-56 3.58273e-56 3.5821e-56 3.59454e-56 3.61935e-56 3.65376e-56 3.69314e-56 3.73132e-56 3.76118e-56 3.77519e-56 3.76612e-56 3.72778e-56 3.65554e-56 3.54687e-56 3.40153e-56 3.22156e-56 3.01103e-56 2.77559e-56 2.52197e-56 2.25743e-56 1.98932e-56 1.72467e-56 1.46984e-56 1.23035e-56 1.0106e-56 8.13799e-57 6.41862e-57 4.95412e-57 3.73881e-57 2.75689e-57 1.98492e-57 1.39464e-57 9.55826e-58 6.38761e-58 4.16123e-58 2.64209e-58 1.63481e-58 9.85733e-59 5.79202e-59 3.3167e-59 1.85113e-59 1.00713e-59 5.34227e-60 2.76346e-60 1.39434e-60 6.86401e-61 3.2976e-61 1.5465e-61 7.08211e-62 3.16783e-62 1.38446e-62 5.91362e-63 2.46952e-63 1.00855e-63 4.02938e-64 1.57534e-64 6.02888e-65 2.25923e-65 8.29233e-66 2.98205e-66 1.05101e-66 3.6314e-67 1.2304e-67 4.08923e-68 1.33347e-68 4.26768e-69 1.34085e-69 4.13679e-70 1.25358e-70 3.73215e-71 1.09191e-71 3.14011e-72 8.87836e-73 2.46857e-73 6.74953e-74 1.80856e-74 4.48871e-75 0 
0 9.69948e-106 6.54654e-105 4.28197e-104 2.77179e-103 1.77633e-102 1.12694e-101 7.07697e-101 4.39873e-100 2.70581e-99 1.64708e-98 9.92056e-98 5.91179e-97 3.48512e-96 2.0323e-95 1.17214e-94 6.68578e-94 3.77096e-93 2.10296e-92 1.15942e-91 6.31868e-91 3.40361e-90 1.81187e-89 9.53087e-89 4.95339e-88 2.54319e-87 1.28975e-86 6.45987e-86 3.19501e-85 1.56024e-84 7.52172e-84 3.5792e-83 1.68087e-82 7.78918e-82 3.56117e-81 1.60608e-80 7.14408e-80 3.13367e-79 1.35524e-78 5.77775e-78 2.42774e-77 1.00524e-76 4.10087e-76 1.64794e-75 6.52198e-75 2.54158e-74 9.75045e-74 3.68173e-73 1.36802e-72 5.00094e-72 1.79817e-71 6.35815e-71 2.21029e-70 7.55238e-70 2.53587e-69 8.36506e-69 2.71019e-68 8.62193e-68 2.69258e-67 8.25222e-67 2.48137e-66 7.31825e-66 2.11637e-65 5.99951e-65 1.66667e-64 4.53583e-64 1.20894e-63 3.15469e-63 8.05694e-63 2.01329e-62 4.9206e-62 1.17589e-61 2.74662e-61 6.26866e-61 1.39748e-60 3.04201e-60 6.46367e-60 1.34015e-59 2.71042e-59 5.34553e-59 1.02773e-58 1.92558e-58 3.51491e-58 6.24904e-58 1.08179e-57 1.82304e-57 2.99004e-57 4.77199e-57 7.40959e-57 1.11919e-56 1.64435e-56 2.34989e-56 3.2664e-56 4.41668e-56 5.81021e-56 7.43809e-56 9.26941e-56 1.12503e-55 1.33063e-55 1.53486e-55 1.72833e-55 1.90224e-55 2.04949e-55 2.16561e-55 2.24923e-55 2.30222e-55 2.32924e-55 2.33696e-55 2.33306e-55 2.32514e-55 2.31983e-55 2.32211e-55 2.33497e-55 2.35934e-55 2.39438e-55 2.4379e-55 2.48687e-55 2.538e-55 2.58821e-55 2.63505e-55 2.67688e-55 2.71298e-55 2.74347e-55 2.76916e-55 2.79132e-55 2.81146e-55 2.83116e-55 2.85182e-55 2.87462e-55 2.90031e-55 2.9291e-55 2.96056e-55 2.99352e-55 3.02609e-55 3.05573e-55 3.07955e-55 3.09461e-55 3.09831e-55 3.08887e-55 3.06556e-55 3.0289e-55 2.98063e-55 2.92349e-55 2.86084e-55 2.79626e-55 2.73308e-55 2.67395e-55 2.62055e-55 2.57343e-55 2.53193e-55 2.4944e-55 2.45838e-55 2.42107e-55 2.37974e-55 2.33232e-55 2.27782e-55 2.21669e-55 2.15094e-55 2.08407e-55 2.02069e-55 1.96595e-55 1.92478e-55 1.90117e-55 1.89752e-55 1.91422e-55 1.94954e-55 1.99978e-55 2.05976e-55 2.12353e-55 2.18509e-55 2.2392e-55 2.28192e-55 2.31106e-55 2.3263e-55 2.32903e-55 2.32208e-55 2.30914e-55 2.29428e-55 2.28137e-55 2.27362e-55 2.27321e-55 2.28105e-55 2.29672e-55 2.31847e-55 2.34335e-55 2.36748e-55 2.38635e-55 2.3952e-55 2.38946e-55 2.36519e-55 2.31947e-55 2.2507e-55 2.1587e-55 2.04476e-55 1.91143e-55 1.76229e-55 1.60157e-55 1.43389e-55 1.26387e-55 1.09598e-55 9.34254e-56 7.822e-56 6.42628e-56 5.17588e-56 4.08306e-56 3.15195e-56 2.37907e-56 1.75446e-56 1.2633e-56 8.87684e-57 6.08413e-57 4.06605e-57 2.64888e-57 1.68185e-57 1.04064e-57 6.27448e-58 3.68662e-58 2.11096e-58 1.1781e-58 6.40906e-59 3.39938e-59 1.75828e-59 8.87076e-60 4.36643e-60 2.0975e-60 9.83576e-61 4.50373e-61 2.0143e-61 8.80226e-62 3.7594e-62 1.56975e-62 6.41015e-63 2.56073e-63 1.00105e-63 3.83067e-64 1.43535e-64 5.26784e-65 1.89423e-65 6.67553e-66 2.30632e-66 7.81371e-67 2.59671e-67 8.46714e-68 2.70968e-68 8.51298e-69 2.62629e-69 7.95815e-70 2.36919e-70 6.93129e-71 1.99323e-71 5.63553e-72 1.56689e-72 4.28411e-73 1.14793e-73 2.84907e-74 0 
0 6.09116e-105 4.11053e-104 2.6882e-103 1.73985e-102 1.11483e-101 7.07164e-101 4.44022e-100 2.75944e-99 1.69719e-98 1.03297e-97 6.22084e-97 3.70658e-96 2.18482e-95 1.27388e-94 7.34631e-94 4.18974e-93 2.36284e-92 1.31754e-91 7.26313e-91 3.95789e-90 2.13173e-89 1.13468e-88 5.96811e-88 3.10146e-87 1.59222e-86 8.07406e-86 4.04365e-85 1.99981e-84 9.76504e-84 4.70727e-83 2.2398e-82 1.05179e-81 4.87373e-81 2.22813e-80 1.00483e-79 4.46943e-79 1.96039e-78 8.47795e-78 3.61427e-77 1.51864e-76 6.28798e-76 2.56515e-75 1.0308e-74 4.07954e-74 1.58978e-73 6.09903e-73 2.303e-72 8.55742e-72 3.12833e-71 1.12488e-70 3.9776e-70 1.3828e-69 4.72513e-69 1.58665e-68 5.23418e-68 1.69593e-67 5.39566e-67 1.68516e-66 5.16512e-66 1.55325e-65 4.58139e-65 1.32503e-64 3.7566e-64 1.0437e-63 2.84076e-63 7.57243e-63 1.97624e-62 5.04789e-62 1.26154e-61 3.08371e-61 7.37022e-61 1.72177e-60 3.93019e-60 8.76285e-60 1.90777e-59 4.0542e-59 8.40699e-59 1.70054e-58 3.3543e-58 6.44983e-58 1.20862e-57 2.20648e-57 3.92331e-57 6.79254e-57 1.14481e-56 1.87784e-56 2.99725e-56 4.6543e-56 7.0307e-56 1.03304e-55 1.47637e-55 2.05228e-55 2.7751e-55 3.65079e-55 4.67374e-55 5.82453e-55 7.06926e-55 8.36117e-55 9.64446e-55 1.08601e-54 1.19529e-54 1.28781e-54 1.36078e-54 1.41333e-54 1.44664e-54 1.46364e-54 1.46852e-54 1.46608e-54 1.46111e-54 1.45777e-54 1.45918e-54 1.4672e-54 1.48244e-54 1.50437e-54 1.5316e-54 1.56225e-54 1.59425e-54 1.62569e-54 1.65501e-54 1.6812e-54 1.70381e-54 1.7229e-54 1.739e-54 1.75288e-54 1.7655e-54 1.77784e-54 1.79078e-54 1.80506e-54 1.82114e-54 1.83915e-54 1.85883e-54 1.87945e-54 1.89982e-54 1.91835e-54 1.93325e-54 1.94266e-54 1.94497e-54 1.93905e-54 1.92446e-54 1.90151e-54 1.8713e-54 1.83554e-54 1.79634e-54 1.75593e-54 1.7164e-54 1.67941e-54 1.64601e-54 1.61653e-54 1.59058e-54 1.5671e-54 1.54456e-54 1.5212e-54 1.49532e-54 1.46562e-54 1.43147e-54 1.39316e-54 1.35195e-54 1.31003e-54 1.27031e-54 1.23599e-54 1.21017e-54 1.19536e-54 1.19307e-54 1.20353e-54 1.22566e-54 1.25715e-54 1.29474e-54 1.33472e-54 1.37331e-54 1.40723e-54 1.43402e-54 1.45231e-54 1.46188e-54 1.46361e-54 1.45927e-54 1.45117e-54 1.44187e-54 1.43378e-54 1.42892e-54 1.42865e-54 1.43355e-54 1.44335e-54 1.45696e-54 1.47253e-54 1.48764e-54 1.49945e-54 1.50499e-54 1.50138e-54 1.48618e-54 1.45753e-54 1.41442e-54 1.35675e-54 1.28531e-54 1.2017e-54 1.10814e-54 1.00728e-54 9.02017e-55 7.95246e-55 6.89765e-55 5.8812e-55 4.92512e-55 4.04717e-55 3.26034e-55 2.57243e-55 1.98613e-55 1.49932e-55 1.10581e-55 7.9632e-56 5.5959e-56 3.8356e-56 2.56342e-56 1.67e-56 1.06032e-56 6.56055e-57 3.95551e-57 2.32397e-57 1.33063e-57 7.42547e-58 4.03926e-58 2.14224e-58 1.10793e-58 5.58907e-59 2.75079e-59 1.32124e-59 6.19497e-60 2.8363e-60 1.26839e-60 5.54205e-61 2.3667e-61 9.88109e-62 4.03451e-62 1.61153e-62 6.29911e-63 2.41019e-63 9.03e-64 3.31374e-64 1.19145e-64 4.19845e-65 1.45039e-65 4.91344e-66 1.63274e-66 5.32352e-67 1.70353e-67 5.35162e-68 1.6509e-68 5.00227e-69 1.48914e-69 4.35641e-70 1.25273e-70 3.54177e-71 9.84719e-72 2.69231e-72 7.21397e-73 1.79042e-73 0 
0 3.78589e-104 2.55447e-103 1.67032e-102 1.08089e-101 6.92492e-101 4.392e-100 2.7573e-99 1.71332e-98 1.05363e-97 6.41187e-97 3.86091e-96 2.30016e-95 1.35564e-94 7.90322e-94 4.55712e-93 2.5987e-92 1.46539e-91 8.17023e-91 4.50347e-90 2.45381e-89 1.32149e-88 7.03338e-88 3.69901e-87 1.9221e-86 9.86676e-86 5.00296e-85 2.50538e-84 1.23896e-83 6.04939e-83 2.91593e-82 1.38736e-81 6.51456e-81 3.01853e-80 1.37991e-79 6.22282e-79 2.76776e-78 1.21396e-77 5.24976e-77 2.23799e-76 9.40338e-76 3.89346e-75 1.58831e-74 6.38255e-74 2.526e-73 9.84378e-73 3.77653e-72 1.42605e-71 5.29902e-71 1.93722e-70 6.96608e-70 2.46334e-69 8.56413e-69 2.9266e-68 9.82781e-68 3.24231e-67 1.05062e-66 3.34286e-66 1.04413e-65 3.20061e-65 9.62576e-65 2.83947e-64 8.2132e-64 2.3288e-63 6.47092e-63 1.76149e-62 4.69609e-62 1.22575e-61 3.13134e-61 7.8268e-61 1.91346e-60 4.57394e-60 1.06869e-59 2.43981e-59 5.4407e-59 1.18468e-58 2.51796e-58 5.22218e-58 1.05649e-57 2.08422e-57 4.00825e-57 7.51205e-57 1.3716e-56 2.43914e-56 4.2235e-56 7.11909e-56 1.16788e-55 1.86425e-55 2.89518e-55 4.37376e-55 6.42695e-55 9.18561e-55 1.27694e-54 1.72676e-54 2.27171e-54 2.9083e-54 3.62443e-54 4.39901e-54 5.20293e-54 6.00147e-54 6.75789e-54 7.43782e-54 8.01355e-54 8.46756e-54 8.79461e-54 9.00197e-54 9.10785e-54 9.13829e-54 9.12323e-54 9.09234e-54 9.07148e-54 9.08003e-54 9.12963e-54 9.22396e-54 9.35977e-54 9.52852e-54 9.71846e-54 9.91682e-54 1.01117e-53 1.02935e-53 1.04558e-53 1.0596e-53 1.07144e-53 1.08142e-53 1.09004e-53 1.09787e-53 1.10552e-53 1.11355e-53 1.1224e-53 1.13237e-53 1.14353e-53 1.15572e-53 1.16849e-53 1.1811e-53 1.19258e-53 1.2018e-53 1.20762e-53 1.20905e-53 1.20538e-53 1.19633e-53 1.18211e-53 1.16339e-53 1.14123e-53 1.11694e-53 1.0919e-53 1.06742e-53 1.0445e-53 1.02381e-53 1.00556e-53 9.89483e-54 9.74941e-54 9.60978e-54 9.46499e-54 9.30451e-54 9.12027e-54 8.90839e-54 8.67064e-54 8.41487e-54 8.15471e-54 7.90812e-54 7.69508e-54 7.53481e-54 7.44284e-54 7.42854e-54 7.49344e-54 7.63077e-54 7.82616e-54 8.05951e-54 8.30763e-54 8.54721e-54 8.75782e-54 8.92417e-54 9.03775e-54 9.09725e-54 9.10813e-54 9.08127e-54 9.03111e-54 8.97342e-54 8.92326e-54 8.89308e-54 8.89135e-54 8.92166e-54 8.98237e-54 9.06668e-54 9.16319e-54 9.25683e-54 9.33005e-54 9.36435e-54 9.34198e-54 9.24761e-54 9.06984e-54 8.80233e-54 8.44437e-54 8.00085e-54 7.48159e-54 6.90039e-54 6.27368e-54 5.61929e-54 4.9553e-54 4.29906e-54 3.66641e-54 3.07108e-54 2.52419e-54 2.03386e-54 1.60502e-54 1.23941e-54 9.35762e-55 6.90247e-55 4.97109e-55 3.49354e-55 2.39469e-55 1.60048e-55 1.04268e-55 6.62015e-56 4.09598e-56 2.46946e-56 1.45079e-56 8.30615e-57 4.63482e-57 2.52099e-57 1.33688e-57 6.91341e-58 3.48715e-58 1.71608e-58 8.24156e-59 3.86376e-59 1.76876e-59 7.90882e-60 3.45521e-60 1.47534e-60 6.15882e-61 2.51437e-61 1.0042e-61 3.92474e-62 1.50152e-62 5.62494e-63 2.06396e-63 7.42014e-64 2.61445e-64 9.03093e-65 3.0591e-65 1.01645e-65 3.31385e-66 1.06035e-66 3.33084e-67 1.02745e-67 3.11301e-68 9.26665e-69 2.71079e-69 7.79479e-70 2.20369e-70 6.12672e-71 1.67506e-71 4.48816e-72 1.11389e-72 0 
0 2.32869e-103 1.57101e-102 1.0271e-101 6.64555e-101 4.25696e-100 2.69951e-99 1.69451e-98 1.05278e-97 6.47333e-97 3.93883e-96 2.37146e-95 1.41263e-94 8.32454e-94 4.85252e-93 2.79771e-92 1.59521e-91 8.9943e-91 5.01418e-90 2.76355e-89 1.50562e-88 8.10768e-88 4.31475e-87 2.26902e-86 1.17893e-85 6.05135e-85 3.06811e-84 1.53633e-83 7.5969e-83 3.70905e-82 1.78773e-81 8.5053e-81 3.99357e-80 1.85034e-79 8.45841e-79 3.81423e-78 1.69642e-77 7.44042e-77 3.21753e-76 1.37162e-75 5.76307e-75 2.38618e-74 9.73419e-74 3.91167e-73 1.54812e-72 6.0331e-72 2.31463e-71 8.74049e-71 3.24796e-70 1.18744e-69 4.27013e-69 1.51008e-68 5.2503e-68 1.79429e-67 6.02583e-67 1.98815e-66 6.44283e-66 2.05016e-65 6.40419e-65 1.96331e-64 5.90524e-64 1.74217e-63 5.03984e-63 1.42919e-62 3.97175e-62 1.08132e-61 2.88319e-61 7.52661e-61 1.92307e-60 4.80746e-60 1.17549e-59 2.81035e-59 6.56737e-59 1.49957e-58 3.34455e-58 7.28377e-58 1.54837e-57 3.21181e-57 6.4988e-57 1.28228e-56 2.46639e-56 4.62308e-56 8.44237e-56 1.50153e-55 2.60033e-55 4.38364e-55 7.19215e-55 1.14819e-54 1.78331e-54 2.69428e-54 3.95937e-54 5.65922e-54 7.86762e-54 1.06395e-53 1.39977e-53 1.79205e-53 2.23335e-53 2.71066e-53 3.20603e-53 3.69806e-53 4.16412e-53 4.58304e-53 4.93776e-53 5.21748e-53 5.41899e-53 5.54678e-53 5.61206e-53 5.63087e-53 5.62163e-53 5.6026e-53 5.58968e-53 5.59482e-53 5.62516e-53 5.68297e-53 5.76627e-53 5.86979e-53 5.98634e-53 6.10807e-53 6.22766e-53 6.33923e-53 6.43891e-53 6.52496e-53 6.59768e-53 6.65898e-53 6.71189e-53 6.76e-53 6.807e-53 6.8563e-53 6.91063e-53 6.97177e-53 7.04024e-53 7.11501e-53 7.19331e-53 7.27065e-53 7.34103e-53 7.39756e-53 7.43324e-53 7.44194e-53 7.41939e-53 7.36386e-53 7.27659e-53 7.16172e-53 7.02576e-53 6.87674e-53 6.72318e-53 6.57298e-53 6.43244e-53 6.30556e-53 6.19361e-53 6.09505e-53 6.00587e-53 5.92022e-53 5.83137e-53 5.73285e-53 5.6197e-53 5.48955e-53 5.34346e-53 5.1863e-53 5.02641e-53 4.87485e-53 4.74391e-53 4.64538e-53 4.58883e-53 4.58001e-53 4.61987e-53 4.70425e-53 4.82431e-53 4.96772e-53 5.12021e-53 5.26747e-53 5.39694e-53 5.49922e-53 5.56908e-53 5.6057e-53 5.61245e-53 5.59601e-53 5.56522e-53 5.5298e-53 5.49899e-53 5.48043e-53 5.47933e-53 5.4979e-53 5.53513e-53 5.58686e-53 5.64609e-53 5.70356e-53 5.7485e-53 5.76956e-53 5.75581e-53 5.69784e-53 5.58863e-53 5.42425e-53 5.20426e-53 4.93161e-53 4.61232e-53 4.25484e-53 3.86922e-53 3.46643e-53 3.05755e-53 2.65328e-53 2.26337e-53 1.89631e-53 1.55896e-53 1.25639e-53 9.91671e-54 7.65905e-54 5.78344e-54 4.26655e-54 3.07302e-54 2.15978e-54 1.48053e-54 9.89527e-55 6.44658e-55 4.093e-55 2.53232e-55 1.52666e-55 8.96847e-56 5.13428e-56 2.86467e-56 1.55801e-56 8.26123e-57 4.27163e-57 2.15436e-57 1.06006e-57 5.09032e-58 2.38609e-58 1.09216e-58 4.8828e-59 2.13291e-59 9.10601e-60 3.8008e-60 1.55148e-60 6.19557e-61 2.4211e-61 9.26145e-62 3.46905e-62 1.27275e-62 4.57512e-63 1.61184e-63 5.56708e-64 1.88558e-64 6.26462e-65 2.04221e-65 6.53402e-66 2.05234e-66 6.33029e-67 1.91784e-67 5.70858e-68 1.66985e-68 4.80133e-69 1.35734e-69 3.77353e-70 1.03165e-70 2.76414e-71 6.86e-72 0 