# vtk DataFile Version 3.0
Gray-Scott Simulation Output
ASCII
DATASET STRUCTURED_POINTS
DIMENSIONS 256 256 1
SPACING 1.0 1.0 1.0
ORIGIN 0 0 0
POINT_DATA 65536
SCALARS u double
LOOKUP_TABLE default
0 0 0 0 0 0 0 0 0 0 0 0 0 0 0 0 0 0 0 0 0 0 0 0 0 0 0 0 0 0 0 0 0 0 0 0 0 0 0 0 0 0 0 0 0 0 0 0 0 0 0 0 0 0 0 0 0 0 0 0 0 0 0 0 0 0 0 0 0 0 0 0 0 0 0 0 0 0 0 0 0 0 0 0 0 0 0 0 0 0 0 0 0 0 0 0 0 0 0 0 0 0 0 0 0 0 0 0 0 0 0 0 0 0 0 0 0 0 0 0 0 0 0 0 0 0 0 0 0 0 0 0 0 0 0 0 0 0 0 0 0 0 0 0 0 0 0 0 0 0 0 0 0 0 0 0 0 0 0 0 0 0 0 0 0 0 0 0 0 0 0 0 0 0 0 0 0 0 0 0 0 0 0 0 0 0 0 0 0 0 0 0 0 0 0 0 0 0 0 0 0 0 0 0 0 0 0 0 0 0 0 0 0 0 0 0 0 0 0 0 0 0 0 0 0 0 0 0 0 0 0 0 0 0 0 0 0 0 0 0 0 0 0 0 0 0 0 0 0 0 0 0 0 0 0 0 
0 3.12442e-87 1.39121e-86 5.83777e-86 2.42112e-85 9.94872e-85 4.05066e-84 1.63405e-83 6.53061e-83 2.58558e-82 1.01402e-81 3.93899e-81 1.51544e-80 5.77398e-80 2.1785e-79 8.13865e-79 3.01038e-78 1.10238e-77 3.99613e-77 1.43388e-76 5.09229e-76 1.78978e-75 6.22493e-75 2.14228e-74 7.29434e-74 2.45709e-73 8.18728e-73 2.69836e-72 8.79547e-72 2.83513e-71 9.03641e-71 2.84763e-70 8.87138e-70 2.73194e-69 8.31526e-69 2.50125e-68 7.43479e-68 2.18352e-67 6.33544e-67 1.81582e-66 5.14039e-66 1.43712e-65 3.96744e-65 1.08142e-64 2.90999e-64 7.7294e-64 2.02628e-63 5.24202e-63 1.33808e-62 3.36973e-62 8.37099e-62 2.05101e-61 4.95573e-61 1.18069e-60 2.77325e-60 6.42106e-60 1.4653e-59 3.29522e-59 7.30157e-59 1.59389e-58 3.42727e-58 7.25802e-58 1.51358e-57 3.10774e-57 6.28161e-57 1.24974e-56 2.44696e-56 4.7144e-56 8.93628e-56 1.6663e-55 3.05602e-55 5.51192e-55 9.77538e-55 1.70447e-54 2.92157e-54 4.92216e-54 8.15e-54 1.32609e-53 2.12008e-53 3.33008e-53 5.13853e-53 7.78879e-53 1.15962e-52 1.69572e-52 2.43536e-52 3.43503e-52 4.7583e-52 6.47333e-52 8.64915e-52 1.13504e-51 1.46311e-51 1.85277e-51 2.30519e-51 2.8185e-51 3.38733e-51 4.00272e-51 4.65226e-51 5.3207e-51 5.99088e-51 6.64493e-51 7.26562e-51 7.83774e-51 8.34931e-51 8.79252e-51 9.16414e-51 9.46561e-51 9.70255e-51 9.88394e-51 1.0021e-50 1.01259e-50 1.02107e-50 1.02861e-50 1.03608e-50 1.04411e-50 1.05308e-50 1.0631e-50 1.07411e-50 1.08589e-50 1.09817e-50 1.11062e-50 1.12295e-50 1.13496e-50 1.14647e-50 1.15745e-50 1.1679e-50 1.17788e-50 1.18748e-50 1.19678e-50 1.20583e-50 1.21462e-50 1.22305e-50 1.23094e-50 1.23805e-50 1.24405e-50 1.24859e-50 1.25131e-50 1.25189e-50 1.25006e-50 1.24569e-50 1.23875e-50 1.22934e-50 1.2177e-50 1.20417e-50 1.18915e-50 1.17305e-50 1.1563e-50 1.13923e-50 1.1221e-50 1.10505e-50 1.08812e-50 1.07126e-50 1.05436e-50 1.03733e-50 1.02009e-50 1.00267e-50 9.85225e-51 9.68041e-51 9.51548e-51 9.36286e-51 9.22853e-51 9.11844e-51 9.03781e-51 8.99044e-51 8.97817e-51 9.00051e-51 9.05461e-51 9.13543e-51 9.2362e-51 9.34916e-51 9.46626e-51 9.58e-51 9.68415e-51 9.77422e-51 9.84781e-51 9.90461e-51 9.94615e-51 9.97536e-51 9.99595e-51 1.00117e-50 1.0026e-50 1.00406e-50 1.00562e-50 1.0071e-50 1.00816e-50 1.00827e-50 1.00674e-50 1.00278e-50 9.95577e-51 9.84326e-51 9.68319e-51 9.46997e-51 9.19993e-51 8.87167e-51 8.48625e-51 8.04718e-51 7.56024e-51 7.03324e-51 6.47559e-51 5.89784e-51 5.31115e-51 4.72676e-51 4.15546e-51 3.60712e-51 3.09028e-51 2.61182e-51 2.17681e-51 1.78837e-51 1.44775e-51 1.15445e-51 9.06492e-52 7.007e-52 5.33047e-52 3.98989e-52 2.93786e-52 2.12765e-52 1.51532e-52 1.06118e-52 7.30665e-53 4.94606e-53 3.2915e-53 2.15332e-53 1.38485e-53 8.75554e-54 5.442e-54 3.32543e-54 1.99792e-54 1.18025e-54 6.85605e-55 3.91663e-55 2.20056e-55 1.21613e-55 6.61148e-56 3.53623e-56 1.86105e-56 9.63836e-57 4.91284e-57 2.46491e-57 1.2175e-57 5.92096e-58 2.8355e-58 1.33734e-58 6.21285e-59 2.84337e-59 1.28213e-59 5.69696e-60 2.49478e-60 1.07685e-60 4.58222e-61 1.92243e-61 7.9531e-62 3.24471e-62 1.3053e-62 5.1688e-63 1.98865e-63 6.72086e-64 0 
0 1.38949e-86 6.18732e-86 2.5965e-85 1.07693e-84 4.4256e-84 1.80205e-83 7.27013e-83 2.90582e-82 1.15057e-81 4.51278e-81 1.75318e-80 6.7457e-80 2.57046e-79 9.69937e-79 3.62401e-78 1.34064e-77 4.90995e-77 1.7801e-76 6.38821e-76 2.26904e-75 7.97615e-75 2.77456e-74 9.55005e-74 3.25227e-73 1.09571e-72 3.65166e-72 1.20373e-71 3.92436e-71 1.26522e-70 4.03343e-70 1.27131e-69 3.9614e-69 1.22017e-68 3.71468e-68 1.11764e-67 3.32287e-67 9.76125e-67 2.83289e-66 8.12145e-66 2.29967e-65 6.43096e-65 1.77586e-64 4.84184e-64 1.30325e-63 3.4626e-63 9.07988e-63 2.34966e-62 5.99953e-62 1.51133e-61 3.75555e-61 9.20445e-61 2.22471e-60 5.30198e-60 1.24575e-59 2.88528e-59 6.58641e-59 1.48166e-58 3.28415e-58 7.17149e-58 1.54256e-57 3.26781e-57 6.81691e-57 1.40014e-56 2.831e-56 5.63418e-56 1.10351e-55 2.12676e-55 4.03261e-55 7.52175e-55 1.37992e-54 2.48961e-54 4.4166e-54 7.70314e-54 1.32073e-53 2.2257e-53 3.6862e-53 5.99927e-53 9.59351e-53 1.5072e-52 2.32618e-52 3.52657e-52 5.25136e-52 7.68023e-52 1.10316e-51 1.55616e-51 2.15583e-51 2.93306e-51 3.91912e-51 5.14326e-51 6.6299e-51 8.39544e-51 1.04451e-50 1.27703e-50 1.53464e-50 1.81326e-50 2.10725e-50 2.40969e-50 2.71278e-50 3.00843e-50 3.28882e-50 3.54708e-50 3.77781e-50 3.97747e-50 4.14465e-50 4.28002e-50 4.38617e-50 4.46717e-50 4.52814e-50 4.57462e-50 4.61205e-50 4.64529e-50 4.6783e-50 4.71391e-50 4.75378e-50 4.79849e-50 4.84771e-50 4.9005e-50 4.95552e-50 5.01137e-50 5.06673e-50 5.1206e-50 5.17232e-50 5.2216e-50 5.26851e-50 5.31332e-50 5.35643e-50 5.39822e-50 5.43888e-50 5.47835e-50 5.51622e-50 5.55171e-50 5.58366e-50 5.61065e-50 5.63107e-50 5.64332e-50 5.64592e-50 5.63774e-50 5.61812e-50 5.58692e-50 5.54466e-50 5.49237e-50 5.43156e-50 5.36404e-50 5.29174e-50 5.21649e-50 5.13983e-50 5.0629e-50 4.98635e-50 4.91032e-50 4.83461e-50 4.75875e-50 4.68225e-50 4.60481e-50 4.52654e-50 4.44812e-50 4.37086e-50 4.29669e-50 4.22804e-50 4.1676e-50 4.11807e-50 4.08179e-50 4.06048e-50 4.05497e-50 4.06505e-50 4.08943e-50 4.12583e-50 4.17122e-50 4.22208e-50 4.2748e-50 4.326e-50 4.37286e-50 4.41337e-50 4.44645e-50 4.47196e-50 4.49059e-50 4.50368e-50 4.5129e-50 4.51997e-50 4.52635e-50 4.53296e-50 4.53999e-50 4.54673e-50 4.55162e-50 4.55224e-50 4.54551e-50 4.5279e-50 4.49568e-50 4.44525e-50 4.37343e-50 4.27765e-50 4.15626e-50 4.00862e-50 3.83517e-50 3.63747e-50 3.41811e-50 3.18059e-50 2.92914e-50 2.6685e-50 2.40369e-50 2.13979e-50 1.88168e-50 1.63382e-50 1.40009e-50 1.18362e-50 9.86721e-51 8.1083e-51 6.5653e-51 5.23622e-51 4.11225e-51 3.17914e-51 2.41877e-51 1.81064e-51 1.33332e-51 9.65654e-52 6.87756e-52 4.81637e-52 3.31617e-52 2.2447e-52 1.4937e-52 9.771e-53 6.28328e-53 3.97201e-53 2.46844e-53 1.50815e-53 9.05935e-54 5.35072e-54 3.10759e-54 1.77489e-54 9.96997e-55 5.50856e-55 2.99401e-55 1.60098e-55 8.42349e-56 4.36138e-56 2.22248e-56 1.11478e-56 5.50473e-57 2.67632e-57 1.28131e-57 6.04152e-58 2.80589e-58 1.28378e-58 5.78716e-59 2.57073e-59 1.12544e-59 4.85652e-60 2.06597e-60 8.66522e-61 3.58383e-61 1.46174e-61 5.8788e-62 2.32731e-62 8.95194e-63 3.02482e-63 0 
0 5.82248e-86 2.59289e-85 1.08819e-84 4.51379e-84 1.85508e-83 7.55435e-83 3.048e-82 1.21839e-81 4.82478e-81 1.89259e-80 7.35342e-80 2.82971e-79 1.0784e-78 4.06978e-78 1.52081e-77 5.6268e-77 2.06106e-76 7.4735e-76 2.68242e-75 9.5293e-75 3.35032e-74 1.16564e-73 4.01286e-73 1.36684e-72 4.60585e-72 1.53529e-71 5.06198e-71 1.65064e-70 5.32284e-70 1.69727e-69 5.3509e-69 1.66774e-68 5.13814e-68 1.56464e-67 4.70876e-67 1.40033e-66 4.11473e-66 1.1945e-65 3.4254e-65 9.70219e-65 2.71398e-64 7.49671e-64 2.04459e-63 5.50501e-63 1.46309e-62 3.83788e-62 9.9348e-62 2.53757e-61 6.39452e-61 1.58954e-60 3.89716e-60 9.42276e-60 2.24646e-59 5.28018e-59 1.22339e-58 2.79374e-58 6.28706e-58 1.39407e-57 3.04533e-57 6.55285e-57 1.3887e-56 2.89804e-56 5.95457e-56 1.20443e-55 2.39792e-55 4.69832e-55 9.05819e-55 1.71817e-54 3.20593e-54 5.88357e-54 1.06186e-53 1.88438e-53 3.28767e-53 5.63857e-53 9.50505e-53 1.57468e-52 2.56348e-52 4.10036e-52 6.44351e-52 9.94698e-52 1.50832e-51 2.24643e-51 3.28601e-51 4.72061e-51 6.65991e-51 9.22726e-51 1.25549e-50 1.67767e-50 2.20176e-50 2.83819e-50 3.59394e-50 4.47117e-50 5.46611e-50 6.56818e-50 7.75977e-50 9.01666e-50 1.03091e-49 1.16037e-49 1.28657e-49 1.40618e-49 1.51625e-49 1.61449e-49 1.69938e-49 1.77035e-49 1.8277e-49 1.87253e-49 1.90663e-49 1.93218e-49 1.95155e-49 1.96709e-49 1.98087e-49 1.99458e-49 2.00944e-49 2.02615e-49 2.04495e-49 2.0657e-49 2.08799e-49 2.11126e-49 2.1349e-49 2.15834e-49 2.18116e-49 2.20306e-49 2.22394e-49 2.24382e-49 2.2628e-49 2.28107e-49 2.29878e-49 2.31601e-49 2.33274e-49 2.3488e-49 2.36385e-49 2.37741e-49 2.38886e-49 2.39753e-49 2.40274e-49 2.40385e-49 2.40039e-49 2.39208e-49 2.37886e-49 2.36094e-49 2.33876e-49 2.31298e-49 2.28435e-49 2.2537e-49 2.2218e-49 2.18931e-49 2.15671e-49 2.12427e-49 2.09207e-49 2.05999e-49 2.02785e-49 1.99543e-49 1.9626e-49 1.92942e-49 1.89616e-49 1.86338e-49 1.8319e-49 1.80275e-49 1.77709e-49 1.75605e-49 1.74065e-49 1.7316e-49 1.72927e-49 1.73356e-49 1.74393e-49 1.75941e-49 1.7787e-49 1.80032e-49 1.82272e-49 1.84447e-49 1.86437e-49 1.88157e-49 1.8956e-49 1.90641e-49 1.9143e-49 1.91983e-49 1.92372e-49 1.9267e-49 1.92941e-49 1.93222e-49 1.93522e-49 1.93812e-49 1.94025e-49 1.94058e-49 1.9378e-49 1.93042e-49 1.91683e-49 1.89552e-49 1.86511e-49 1.82453e-49 1.77304e-49 1.71037e-49 1.6367e-49 1.55269e-49 1.45941e-49 1.35836e-49 1.25133e-49 1.14031e-49 1.02747e-49 9.14945e-50 8.04829e-50 6.99029e-50 5.99205e-50 5.06707e-50 4.2253e-50 3.47299e-50 2.81274e-50 2.24381e-50 1.76249e-50 1.36279e-50 1.03698e-50 7.76343e-51 5.71726e-51 4.14093e-51 2.94931e-51 2.0654e-51 1.42203e-51 9.62509e-52 6.40433e-52 4.18896e-52 2.69339e-52 1.70239e-52 1.05779e-52 6.46162e-53 3.88068e-53 2.29155e-53 1.33058e-53 7.59769e-54 4.26672e-54 2.3568e-54 1.28061e-54 6.84586e-55 3.60086e-55 1.86384e-55 9.49488e-56 4.7611e-56 2.35027e-56 1.14231e-56 5.46716e-57 2.577e-57 1.19646e-57 5.47242e-58 2.46612e-58 1.09513e-58 4.79284e-59 2.06756e-59 8.79266e-60 3.68671e-60 1.52431e-60 6.21528e-61 2.4989e-61 9.88977e-62 3.80302e-62 1.28474e-62 0 
0 2.41132e-85 1.0739e-84 4.50732e-84 1.8698e-83 7.68523e-83 3.12992e-82 1.26298e-81 5.0491e-81 1.99965e-80 7.84484e-80 3.04839e-79 1.17322e-78 4.47173e-78 1.68782e-77 6.30803e-77 2.33423e-76 8.55144e-76 3.1013e-75 1.11332e-74 3.95574e-74 1.39101e-73 4.84049e-73 1.66672e-72 5.67819e-72 1.91378e-71 6.38064e-71 2.1042e-70 6.86301e-70 2.21363e-69 7.06016e-69 2.22636e-68 6.94073e-68 2.13892e-67 6.51504e-67 1.96121e-66 5.83405e-66 1.71475e-65 4.97933e-65 1.42832e-64 4.04683e-64 1.13237e-63 3.12886e-63 8.53614e-63 2.29909e-62 6.11244e-62 1.60392e-61 4.15336e-61 1.06123e-60 2.6752e-60 6.65238e-60 1.6316e-59 3.94643e-59 9.41213e-59 2.21311e-58 5.12964e-58 1.17186e-57 2.63819e-57 5.85212e-57 1.27889e-56 2.75297e-56 5.83649e-56 1.21848e-55 2.50459e-55 5.06803e-55 1.0094e-54 1.97851e-54 3.81596e-54 7.24091e-54 1.35158e-53 2.48136e-53 4.47992e-53 7.95287e-53 1.38801e-52 2.38131e-52 4.01549e-52 6.65439e-52 1.08361e-51 1.73373e-51 2.72517e-51 4.20791e-51 6.38209e-51 9.50716e-51 1.39092e-50 1.99848e-50 2.81986e-50 3.90733e-50 5.3169e-50 7.10518e-50 9.32509e-50 1.20206e-49 1.52212e-49 1.89356e-49 2.31476e-49 2.78118e-49 3.28534e-49 3.81692e-49 4.3633e-49 4.91029e-49 5.44318e-49 5.94784e-49 6.41184e-49 6.82546e-49 7.18244e-49 7.48031e-49 7.72045e-49 7.90765e-49 8.04944e-49 8.15515e-49 8.23487e-49 8.2985e-49 8.35487e-49 8.41111e-49 8.47233e-49 8.54149e-49 8.61962e-49 8.7061e-49 8.79919e-49 8.89647e-49 8.99536e-49 9.09352e-49 9.18908e-49 9.28085e-49 9.36833e-49 9.45158e-49 9.53113e-49 9.60768e-49 9.68188e-49 9.7541e-49 9.82425e-49 9.89159e-49 9.95472e-49 1.00116e-48 1.00597e-48 1.00961e-48 1.0118e-48 1.01227e-48 1.01083e-48 1.00734e-48 1.0018e-48 9.94284e-49 9.84985e-49 9.74172e-49 9.62168e-49 9.49317e-49 9.35944e-49 9.22326e-49 9.08665e-49 8.95074e-49 8.81582e-49 8.68144e-49 8.54678e-49 8.41092e-49 8.27332e-49 8.13417e-49 7.99465e-49 7.85709e-49 7.72496e-49 7.60259e-49 7.49483e-49 7.40648e-49 7.34178e-49 7.3038e-49 7.29403e-49 7.31211e-49 7.35572e-49 7.42082e-49 7.50195e-49 7.59283e-49 7.68699e-49 7.77837e-49 7.86195e-49 7.93413e-49 7.99299e-49 8.03829e-49 8.0713e-49 8.0944e-49 8.11063e-49 8.12309e-49 8.1344e-49 8.14624e-49 8.15894e-49 8.17128e-49 8.18045e-49 8.18215e-49 8.17085e-49 8.14024e-49 8.08365e-49 7.9946e-49 7.86733e-49 7.69726e-49 7.48131e-49 7.21828e-49 6.90887e-49 6.55579e-49 6.16357e-49 5.7384e-49 5.28778e-49 4.82016e-49 4.34452e-49 3.86998e-49 3.40531e-49 2.95861e-49 2.5369e-49 2.14592e-49 1.78994e-49 1.47163e-49 1.19215e-49 9.51221e-50 7.47321e-50 5.77936e-50 4.39827e-50 3.29315e-50 2.42539e-50 1.75676e-50 1.25125e-50 8.76242e-51 6.03272e-51 4.08304e-51 2.71653e-51 1.77664e-51 1.14218e-51 7.21817e-52 4.48427e-52 2.73873e-52 1.64446e-52 9.70834e-53 5.63574e-53 3.21722e-53 1.80624e-53 9.97432e-54 5.41815e-54 2.89555e-54 1.52257e-54 7.87849e-55 4.01222e-55 2.01123e-55 9.92499e-56 4.82227e-56 2.30719e-56 1.08715e-56 5.04579e-57 2.30708e-57 1.03933e-57 4.61378e-58 2.01855e-58 8.70481e-59 3.70065e-59 1.55115e-59 6.4113e-60 2.61334e-60 1.05038e-60 4.15574e-61 1.59759e-61 5.39576e-62 0 
0 9.89389e-85 4.40665e-84 1.84971e-83 7.67396e-83 3.15445e-82 1.28483e-81 5.18508e-81 2.07311e-80 8.21133e-80 3.22179e-79 1.2521e-78 4.81953e-78 1.83722e-77 6.93546e-77 2.59244e-76 9.59458e-76 3.51554e-75 1.27517e-74 4.57847e-74 1.62707e-73 5.72256e-73 1.99174e-72 6.85948e-72 2.33737e-71 7.87954e-71 2.62765e-70 8.66738e-70 2.82759e-69 9.12243e-69 2.91022e-68 9.17944e-68 2.86244e-67 8.82351e-67 2.68833e-66 8.0949e-66 2.40869e-65 7.08173e-65 2.05702e-64 5.90237e-64 1.67283e-63 4.68233e-63 1.29421e-62 3.53202e-62 9.51625e-62 2.5309e-61 6.64347e-61 1.72095e-60 4.39884e-60 1.10929e-59 2.75949e-59 6.77065e-59 1.63828e-58 3.90879e-58 9.19451e-58 2.13199e-57 4.87247e-57 1.09737e-56 2.43523e-56 5.324e-56 1.14653e-55 2.43171e-55 5.07876e-55 1.04437e-54 2.11415e-54 4.21244e-54 8.26011e-54 1.59377e-53 3.02542e-53 5.64943e-53 1.03757e-52 1.87396e-52 3.32792e-52 5.81025e-52 9.97167e-52 1.68203e-51 2.78831e-51 4.54189e-51 7.26894e-51 1.14288e-50 1.76514e-50 2.67779e-50 3.98983e-50 5.83832e-50 8.38987e-50 1.18398e-49 1.64076e-49 2.23286e-49 2.98403e-49 3.91649e-49 5.04864e-49 6.39272e-49 7.95236e-49 9.72051e-49 1.1678e-48 1.37931e-48 1.60224e-48 1.83127e-48 2.06042e-48 2.28351e-48 2.49462e-48 2.68852e-48 2.86117e-48 3.00995e-48 3.13386e-48 3.23351e-48 3.31094e-48 3.36933e-48 3.41263e-48 3.44509e-48 3.47086e-48 3.49366e-48 3.51647e-48 3.54143e-48 3.56979e-48 3.60195e-48 3.63766e-48 3.67618e-48 3.71649e-48 3.75751e-48 3.79824e-48 3.83792e-48 3.87602e-48 3.91235e-48 3.94693e-48 3.97996e-48 4.01175e-48 4.04258e-48 4.07259e-48 4.10174e-48 4.12973e-48 4.15598e-48 4.17964e-48 4.19965e-48 4.21481e-48 4.22393e-48 4.22592e-48 4.21993e-48 4.20546e-48 4.18243e-48 4.15119e-48 4.11254e-48 4.06758e-48 4.01769e-48 3.96427e-48 3.9087e-48 3.85212e-48 3.79537e-48 3.73892e-48 3.68289e-48 3.62709e-48 3.57116e-48 3.51473e-48 3.45755e-48 3.39971e-48 3.3417e-48 3.28448e-48 3.2295e-48 3.17857e-48 3.13371e-48 3.09692e-48 3.06998e-48 3.05417e-48 3.05012e-48 3.05767e-48 3.07586e-48 3.103e-48 3.13682e-48 3.1747e-48 3.21393e-48 3.25199e-48 3.28679e-48 3.31682e-48 3.34129e-48 3.36011e-48 3.3738e-48 3.38337e-48 3.39008e-48 3.39523e-48 3.39992e-48 3.40486e-48 3.41019e-48 3.4154e-48 3.41932e-48 3.42016e-48 3.41562e-48 3.40306e-48 3.3797e-48 3.34284e-48 3.29005e-48 3.21942e-48 3.12965e-48 3.02022e-48 2.89141e-48 2.74432e-48 2.58083e-48 2.4035e-48 2.21544e-48 2.02016e-48 1.82141e-48 1.62301e-48 1.42861e-48 1.24161e-48 1.06498e-48 9.01132e-49 7.51864e-49 6.18328e-49 5.01026e-49 3.99861e-49 3.1421e-49 2.43034e-49 1.84982e-49 1.38518e-49 1.02026e-49 7.39032e-50 5.26385e-50 3.6862e-50 2.53776e-50 1.71748e-50 1.14257e-50 7.47165e-51 4.80276e-51 3.03468e-51 1.88494e-51 1.15097e-51 6.90944e-52 4.07813e-52 2.36677e-52 1.35073e-52 7.58128e-53 4.18526e-53 2.27279e-53 1.21424e-53 6.38278e-54 3.30167e-54 1.68086e-54 8.42288e-55 4.15509e-55 2.01814e-55 9.65237e-56 4.54661e-56 2.10948e-56 9.64175e-57 4.34203e-57 1.92684e-57 8.42708e-58 3.63285e-58 1.54389e-58 6.46912e-59 2.67295e-59 1.08917e-59 4.37625e-60 1.73087e-60 6.65199e-61 2.24613e-61 0 
0 4.02229e-84 1.79164e-83 7.52115e-83 3.12064e-82 1.2829e-81 5.2259e-81 2.10921e-80 8.43409e-80 3.34105e-79 1.31106e-78 5.09592e-78 1.96178e-77 7.47945e-77 2.82389e-76 1.05572e-75 3.90785e-75 1.43211e-74 5.19553e-74 1.86577e-73 6.63172e-73 2.33289e-72 8.12123e-72 2.7975e-71 9.53453e-71 3.2149e-70 1.07234e-69 3.53797e-69 1.15448e-68 3.72552e-68 1.18881e-67 3.75074e-67 1.16991e-66 3.60726e-66 1.09936e-65 3.31127e-65 9.85581e-65 2.89857e-64 8.42204e-64 2.41737e-63 6.85346e-63 1.91895e-62 5.30583e-62 1.44851e-61 3.90407e-61 1.03868e-60 2.72748e-60 7.06801e-60 1.8073e-59 4.55936e-59 1.13464e-58 2.78504e-58 6.7416e-58 1.60914e-57 3.78666e-57 8.78402e-57 2.00834e-56 4.52508e-56 1.0046e-55 2.19724e-55 4.73379e-55 1.00444e-54 2.09872e-54 4.31754e-54 8.74383e-54 1.74295e-53 3.41916e-53 6.59992e-53 1.25337e-52 2.34139e-52 4.30188e-52 7.77268e-52 1.38086e-51 2.41174e-51 4.14056e-51 6.98676e-51 1.15858e-50 1.88781e-50 3.02219e-50 4.75304e-50 7.34287e-50 1.11421e-49 1.6605e-49 2.43028e-49 3.49299e-49 4.93002e-49 6.83284e-49 9.29945e-49 1.24288e-48 1.63131e-48 2.10289e-48 2.66268e-48 3.31212e-48 4.04822e-48 4.86291e-48 5.74289e-48 6.66998e-48 7.62193e-48 8.57385e-48 9.49994e-48 1.03755e-47 1.11789e-47 1.18933e-47 1.2508e-47 1.30188e-47 1.34286e-47 1.37459e-47 1.39841e-47 1.41596e-47 1.42903e-47 1.43935e-47 1.44847e-47 1.45762e-47 1.46769e-47 1.4792e-47 1.49232e-47 1.50693e-47 1.52273e-47 1.53928e-47 1.55615e-47 1.57291e-47 1.58923e-47 1.60492e-47 1.61987e-47 1.63411e-47 1.64771e-47 1.6608e-47 1.67349e-47 1.68585e-47 1.69786e-47 1.7094e-47 1.72022e-47 1.72997e-47 1.73823e-47 1.74449e-47 1.74826e-47 1.74909e-47 1.74663e-47 1.74067e-47 1.73118e-47 1.71831e-47 1.70238e-47 1.68385e-47 1.66329e-47 1.64128e-47 1.61839e-47 1.59508e-47 1.57171e-47 1.54847e-47 1.5254e-47 1.50243e-47 1.4794e-47 1.45616e-47 1.43261e-47 1.40878e-47 1.38486e-47 1.36127e-47 1.33859e-47 1.31757e-47 1.29906e-47 1.28387e-47 1.27275e-47 1.26623e-47 1.26456e-47 1.26769e-47 1.27521e-47 1.28643e-47 1.30041e-47 1.31606e-47 1.33226e-47 1.34798e-47 1.36234e-47 1.37473e-47 1.38482e-47 1.39257e-47 1.3982e-47 1.40212e-47 1.40487e-47 1.40698e-47 1.40891e-47 1.41096e-47 1.41317e-47 1.41536e-47 1.41702e-47 1.41743e-47 1.41562e-47 1.41052e-47 1.40097e-47 1.38584e-47 1.36414e-47 1.33507e-47 1.29808e-47 1.25296e-47 1.1998e-47 1.13906e-47 1.0715e-47 9.98175e-48 9.20363e-48 8.39516e-48 7.57182e-48 6.74934e-48 5.94299e-48 5.16686e-48 4.4333e-48 3.75242e-48 3.1318e-48 2.5763e-48 2.0881e-48 1.66686e-48 1.31009e-48 1.01349e-48 7.71519e-49 5.77794e-49 4.25609e-49 3.08308e-49 2.196e-49 1.5378e-49 1.05866e-49 7.16416e-50 4.76556e-50 3.11596e-50 2.00263e-50 1.26517e-50 7.85686e-51 4.79649e-51 2.87872e-51 1.69867e-51 9.85575e-52 5.62316e-52 3.15519e-52 1.7413e-52 9.45306e-53 5.04865e-53 2.653e-53 1.37187e-53 6.98166e-54 3.49732e-54 1.72465e-54 8.37367e-55 4.00351e-55 1.88511e-55 8.7431e-56 3.99474e-56 1.79832e-56 7.97743e-57 3.48769e-57 1.50297e-57 6.38507e-58 2.67449e-58 1.10467e-58 4.49974e-59 1.80737e-59 7.14604e-60 2.74547e-60 9.26813e-61 0 
0 1.62012e-83 7.21704e-83 3.02995e-82 1.2573e-81 5.16935e-81 2.10598e-80 8.50087e-80 3.39966e-79 1.3469e-78 5.28608e-78 2.05492e-77 7.91197e-77 3.01696e-76 1.13924e-75 4.25979e-75 1.57707e-74 5.7805e-74 2.09747e-73 7.53368e-73 2.6783e-72 9.42353e-72 3.28119e-71 1.13051e-70 3.85388e-70 1.29976e-69 4.33642e-69 1.43106e-68 4.67087e-68 1.50768e-67 4.81226e-67 1.51869e-66 4.73835e-66 1.46142e-65 4.45518e-65 1.3423e-64 3.9965e-64 1.17573e-63 3.41729e-63 9.81184e-63 2.78268e-62 7.79411e-62 2.1558e-61 5.88753e-61 1.5874e-60 4.22488e-60 1.10983e-59 2.87713e-59 7.35977e-59 1.85742e-58 4.62423e-58 1.13551e-57 2.74981e-57 6.56622e-57 1.54584e-56 3.58746e-56 8.20577e-56 1.84969e-55 4.10825e-55 8.98942e-55 1.93756e-54 4.11304e-54 8.59779e-54 1.76954e-53 3.58524e-53 7.14978e-53 1.40319e-52 2.70972e-52 5.14814e-52 9.62117e-52 1.76845e-51 3.19655e-51 5.68109e-51 9.92618e-51 1.7048e-50 2.8777e-50 4.77359e-50 7.78072e-50 1.246e-49 1.96018e-49 3.02906e-49 4.59744e-49 6.8531e-49 1.00321e-48 1.44216e-48 2.03577e-48 2.82186e-48 3.8409e-48 5.13372e-48 6.7384e-48 8.6864e-48 1.09984e-47 1.36803e-47 1.67192e-47 2.00815e-47 2.3712e-47 2.75351e-47 3.14587e-47 3.53796e-47 3.91912e-47 4.27915e-47 4.60915e-47 4.90219e-47 5.15389e-47 5.36264e-47 5.52959e-47 5.65838e-47 5.75457e-47 5.82501e-47 5.87707e-47 5.91791e-47 5.95391e-47 5.9902e-47 6.03043e-47 6.07669e-47 6.12968e-47 6.18892e-47 6.25312e-47 6.32051e-47 6.38923e-47 6.45756e-47 6.52415e-47 6.58815e-47 6.64917e-47 6.70726e-47 6.76277e-47 6.8162e-47 6.86801e-47 6.91847e-47 6.96752e-47 7.01465e-47 7.05888e-47 7.09877e-47 7.13252e-47 7.15814e-47 7.17359e-47 7.17702e-47 7.16701e-47 7.1427e-47 7.10395e-47 7.05137e-47 6.98628e-47 6.9106e-47 6.82659e-47 6.73669e-47 6.64319e-47 6.54803e-47 6.45263e-47 6.35777e-47 6.26363e-47 6.16989e-47 6.07591e-47 5.98105e-47 5.88489e-47 5.78753e-47 5.68981e-47 5.59335e-47 5.5006e-47 5.41463e-47 5.33887e-47 5.27674e-47 5.23123e-47 5.20455e-47 5.19775e-47 5.21059e-47 5.24143e-47 5.28741e-47 5.34468e-47 5.40879e-47 5.47515e-47 5.53949e-47 5.59827e-47 5.64894e-47 5.69015e-47 5.72177e-47 5.7447e-47 5.76067e-47 5.77182e-47 5.7804e-47 5.78828e-47 5.79665e-47 5.8058e-47 5.81486e-47 5.82187e-47 5.82379e-47 5.81673e-47 5.79621e-47 5.75751e-47 5.69602e-47 5.60763e-47 5.48902e-47 5.33797e-47 5.15353e-47 4.93608e-47 4.68744e-47 4.41071e-47 4.11015e-47 3.79099e-47 3.45917e-47 3.12102e-47 2.783e-47 2.45139e-47 2.13201e-47 1.82995e-47 1.54941e-47 1.29356e-47 1.06442e-47 8.62947e-48 6.89028e-48 5.41662e-48 4.19109e-48 3.19092e-48 2.38996e-48 1.76061e-48 1.27543e-48 9.08472e-49 6.36171e-49 4.37932e-49 2.96336e-49 1.971e-49 1.28857e-49 8.28035e-50 5.23018e-50 3.24735e-50 1.98201e-50 1.18926e-50 7.01571e-51 4.0694e-51 2.3211e-51 1.30199e-51 7.18315e-52 3.89826e-52 2.08126e-52 1.09329e-52 5.65142e-53 2.87506e-53 1.43968e-53 7.09691e-54 3.44446e-54 1.6462e-54 7.74846e-55 3.59236e-55 1.64073e-55 7.38333e-56 3.27404e-56 1.43086e-56 6.1638e-57 2.61759e-57 1.09602e-57 4.52536e-58 1.84268e-58 7.39871e-59 2.92432e-59 1.12314e-59 3.79052e-60 0 
0 6.46475e-83 2.88007e-82 1.20927e-81 5.01851e-81 2.06358e-80 8.40793e-80 3.39432e-79 1.35763e-78 5.37947e-78 2.11153e-77 8.2096e-77 3.16139e-76 1.20568e-75 4.55354e-75 1.70292e-74 6.30568e-74 2.31167e-73 8.38957e-73 3.01394e-72 1.0717e-71 3.77154e-71 1.3135e-70 4.52655e-70 1.54345e-69 5.20668e-69 1.73753e-68 5.73545e-68 1.87249e-67 6.0457e-67 1.93021e-66 6.09322e-66 1.90164e-65 5.86685e-65 1.78906e-64 5.39195e-64 1.60588e-63 4.72588e-63 1.37405e-62 3.94656e-62 1.11965e-61 3.13719e-61 8.68041e-61 2.37152e-60 6.39654e-60 1.7031e-59 4.47562e-59 1.16073e-58 2.97037e-58 7.49956e-58 1.86787e-57 4.58862e-57 1.11169e-56 2.65573e-56 6.25495e-56 1.45225e-55 3.32329e-55 7.49451e-55 1.66533e-54 3.64564e-54 7.86136e-54 1.66957e-53 3.49164e-53 7.1896e-53 1.45734e-52 2.9076e-52 5.70896e-52 1.10296e-51 2.09642e-51 3.91965e-51 7.20776e-51 1.30339e-50 2.31741e-50 4.05067e-50 6.95963e-50 1.17523e-49 1.9502e-49 3.17981e-49 5.0938e-49 8.01587e-49 1.23904e-48 1.88108e-48 2.80468e-48 4.10659e-48 5.90447e-48 8.33615e-48 1.15566e-47 1.57315e-47 2.1028e-47 2.76019e-47 3.55816e-47 4.50511e-47 5.6033e-47 6.84739e-47 8.22344e-47 9.70865e-47 1.12719e-46 1.28753e-46 1.44766e-46 1.60319e-46 1.74997e-46 1.88434e-46 2.00349e-46 2.10564e-46 2.19017e-46 2.25756e-46 2.30934e-46 2.3478e-46 2.37576e-46 2.39625e-46 2.41221e-46 2.42626e-46 2.44048e-46 2.45637e-46 2.47478e-46 2.49598e-46 2.51977e-46 2.54562e-46 2.57281e-46 2.60056e-46 2.62817e-46 2.6551e-46 2.68098e-46 2.70566e-46 2.72916e-46 2.75161e-46 2.77322e-46 2.79419e-46 2.81461e-46 2.83447e-46 2.85355e-46 2.87147e-46 2.88764e-46 2.90133e-46 2.91172e-46 2.918e-46 2.91941e-46 2.91537e-46 2.90553e-46 2.88985e-46 2.86856e-46 2.8422e-46 2.81154e-46 2.77753e-46 2.74112e-46 2.70327e-46 2.66476e-46 2.62615e-46 2.58778e-46 2.5497e-46 2.51178e-46 2.47376e-46 2.43538e-46 2.39646e-46 2.35704e-46 2.31746e-46 2.27837e-46 2.24077e-46 2.20591e-46 2.17518e-46 2.14998e-46 2.13152e-46 2.1207e-46 2.11795e-46 2.12318e-46 2.13571e-46 2.15439e-46 2.17766e-46 2.20369e-46 2.23063e-46 2.25674e-46 2.28058e-46 2.30112e-46 2.31782e-46 2.3306e-46 2.33986e-46 2.3463e-46 2.35079e-46 2.35424e-46 2.35742e-46 2.36083e-46 2.36457e-46 2.3683e-46 2.37123e-46 2.37212e-46 2.36939e-46 2.36122e-46 2.34569e-46 2.32093e-46 2.28525e-46 2.2373e-46 2.17617e-46 2.10145e-46 2.01329e-46 1.91241e-46 1.80005e-46 1.67793e-46 1.54817e-46 1.41316e-46 1.27548e-46 1.13777e-46 1.00257e-46 8.72267e-47 7.48954e-47 6.34355e-47 5.29775e-47 4.36065e-47 3.53623e-47 2.82423e-47 2.22068e-47 1.71856e-47 1.30863e-47 9.80262e-48 7.22187e-48 5.23196e-48 3.72669e-48 2.60962e-48 1.79634e-48 1.21542e-48 8.08318e-49 5.28376e-49 3.39477e-49 2.14386e-49 1.33081e-49 8.12063e-50 4.87134e-50 2.87293e-50 1.66593e-50 9.49921e-51 5.32673e-51 2.93782e-51 1.59379e-51 8.50614e-52 4.46669e-52 2.30805e-52 1.17374e-52 5.87521e-53 2.89508e-53 1.40457e-53 6.71021e-54 3.15717e-54 1.46316e-54 6.68003e-55 3.00485e-55 1.33194e-55 5.81872e-56 2.5056e-56 1.06365e-56 4.45193e-57 1.83747e-57 7.47922e-58 3.00194e-58 1.18608e-58 4.55385e-59 1.53648e-59 0 
0 2.5554e-82 1.13855e-81 4.78099e-81 1.98435e-80 8.16045e-80 3.32534e-79 1.34263e-78 5.37084e-78 2.12844e-77 8.35571e-77 3.24917e-76 1.2514e-75 4.77334e-75 1.80307e-74 6.74427e-74 2.49777e-73 9.15857e-73 3.3245e-72 1.19456e-71 4.24853e-71 1.49547e-70 5.20937e-70 1.79565e-69 6.1242e-69 2.06645e-68 6.89774e-68 2.27747e-67 7.43741e-67 2.40197e-66 7.67092e-66 2.42223e-65 7.56184e-65 2.33365e-64 7.11858e-64 2.14611e-63 6.39387e-63 1.88226e-62 5.47454e-62 1.57296e-61 4.46415e-61 1.25129e-60 3.46354e-60 9.46616e-60 2.55424e-59 6.80347e-59 1.78863e-58 4.64063e-58 1.18807e-57 3.0009e-57 7.47742e-57 1.83772e-56 4.45423e-56 1.06456e-55 2.50847e-55 5.82675e-55 1.334e-54 3.00979e-54 6.69113e-54 1.46548e-53 3.16163e-53 6.7178e-53 1.40559e-52 2.89563e-52 5.8723e-52 1.17216e-51 2.30258e-51 4.45064e-51 8.46335e-51 1.5831e-50 2.91244e-50 5.26892e-50 9.37211e-50 1.63887e-49 2.81695e-49 4.75867e-49 7.89959e-49 1.2885e-48 2.06477e-48 3.25026e-48 5.02554e-48 7.63174e-48 1.13817e-47 1.66687e-47 2.39709e-47 3.38487e-47 4.69313e-47 6.38923e-47 8.54102e-47 1.12116e-46 1.44529e-46 1.82988e-46 2.27581e-46 2.78083e-46 3.33924e-46 3.94169e-46 4.57547e-46 5.22515e-46 5.87349e-46 6.50271e-46 7.09587e-46 7.63822e-46 8.1184e-46 8.52929e-46 8.86841e-46 9.13791e-46 9.34404e-46 9.49623e-46 9.60601e-46 9.6857e-46 9.74729e-46 9.80136e-46 9.85642e-46 9.91847e-46 9.99095e-46 1.00749e-45 1.01696e-45 1.02728e-45 1.03814e-45 1.04925e-45 1.06031e-45 1.0711e-45 1.08148e-45 1.09137e-45 1.10079e-45 1.10979e-45 1.11846e-45 1.12686e-45 1.13506e-45 1.14302e-45 1.15068e-45 1.15788e-45 1.16437e-45 1.16988e-45 1.17406e-45 1.17658e-45 1.17716e-45 1.17554e-45 1.1716e-45 1.16531e-45 1.15676e-45 1.14618e-45 1.13388e-45 1.12022e-45 1.10561e-45 1.09042e-45 1.07497e-45 1.05949e-45 1.0441e-45 1.02883e-45 1.01363e-45 9.9839e-46 9.82999e-46 9.67385e-46 9.51565e-46 9.35672e-46 9.19972e-46 9.04865e-46 8.90853e-46 8.78499e-46 8.68364e-46 8.60941e-46 8.56591e-46 8.55491e-46 8.576e-46 8.62651e-46 8.70175e-46 8.79542e-46 8.90022e-46 9.00864e-46 9.11368e-46 9.20953e-46 9.29206e-46 9.35906e-46 9.41033e-46 9.44738e-46 9.47307e-46 9.49095e-46 9.50471e-46 9.51746e-46 9.5312e-46 9.54638e-46 9.56165e-46 9.57379e-46 9.57784e-46 9.56745e-46 9.53527e-46 9.47355e-46 9.37474e-46 9.23204e-46 9.03997e-46 8.79478e-46 8.4948e-46 8.14057e-46 7.7349e-46 7.28274e-46 6.79095e-46 6.268e-46 5.72353e-46 5.16788e-46 4.61168e-46 4.06525e-46 3.53825e-46 3.03917e-46 2.57506e-46 2.15125e-46 1.77128e-46 1.43681e-46 1.14781e-46 9.02715e-47 6.98732e-47 5.32145e-47 3.98663e-47 2.9373e-47 2.12806e-47 1.51582e-47 1.06143e-47 7.30593e-48 4.94285e-48 3.28685e-48 2.14821e-48 1.37996e-48 8.71296e-49 5.40738e-49 3.29878e-49 1.97832e-49 1.1664e-49 6.76158e-50 3.85424e-50 2.16056e-50 1.19119e-50 6.45996e-51 3.44644e-51 1.80909e-51 9.34443e-52 4.75017e-52 2.37678e-52 1.17071e-52 5.67752e-53 2.71128e-53 1.27514e-53 5.9071e-54 2.69578e-54 1.21214e-54 5.37078e-55 2.34533e-55 1.00952e-55 4.28378e-56 1.79228e-56 7.39449e-57 3.00868e-57 1.20714e-57 4.76769e-58 1.82988e-58 6.17234e-59 0 