# vtk DataFile Version 3.0
Gray-Scott Simulation Output
ASCII
DATASET STRUCTURED_POINTS
DIMENSIONS 256 256 1
SPACING 1.0 1.0 1.0
ORIGIN 0 0 0
POINT_DATA 65536
SCALARS u double
LOOKUP_TABLE default
0 0 0 0 0 0 0 0 0 0 0 0 0 0 0 0 0 0 0 0 0 0 0 0 0 0 0 0 0 0 0 0 0 0 0 0 0 0 0 0 0 0 0 0 0 0 0 0 0 0 0 0 0 0 0 0 0 0 0 0 0 0 0 0 0 0 0 0 0 0 0 0 0 0 0 0 0 0 0 0 0 0 0 0 0 0 0 0 0 0 0 0 0 0 0 0 0 0 0 0 0 0 0 0 0 0 0 0 0 0 0 0 0 0 0 0 0 0 0 0 0 0 0 0 0 0 0 0 0 0 0 0 0 0 0 0 0 0 0 0 0 0 0 0 0 0 0 0 0 0 0 0 0 0 0 0 0 0 0 0 0 0 0 0 0 0 0 0 0 0 0 0 0 0 0 0 0 0 0 0 0 0 0 0 0 0 0 0 0 0 0 0 0 0 0 0 0 0 0 0 0 0 0 0 0 0 0 0 0 0 0 0 0 0 0 0 0 0 0 0 0 0 0 0 0 0 0 0 0 0 0 0 0 0 0 0 0 0 0 0 0 0 0 0 0 0 0 0 0 0 0 0 0 0 0 0 
0 4.2378e-77 1.50587e-76 4.89747e-76 1.56874e-75 4.9806e-75 1.56817e-74 4.89653e-74 1.51615e-73 4.65511e-73 1.41719e-72 4.27767e-72 1.2801e-71 3.79765e-71 1.11684e-70 3.25569e-70 9.40694e-70 2.69387e-69 7.64541e-69 2.15027e-68 5.99272e-68 1.65487e-67 4.5278e-67 1.22733e-66 3.29577e-66 8.76683e-66 2.30988e-65 6.02789e-65 1.5579e-64 3.98729e-64 1.01053e-63 2.53585e-63 6.30035e-63 1.54967e-62 3.77325e-62 9.09404e-62 2.16935e-61 5.1215e-61 1.19654e-60 2.76618e-60 6.32735e-60 1.43191e-59 3.2057e-59 7.09916e-59 1.555e-58 3.36864e-58 7.21673e-58 1.5288e-57 3.20215e-57 6.63099e-57 1.35744e-56 2.74678e-56 5.49352e-56 1.08583e-55 2.12085e-55 4.09319e-55 7.80498e-55 1.47027e-54 2.73591e-54 5.02849e-54 9.12782e-54 1.63624e-53 2.89626e-53 5.06171e-53 8.73342e-53 1.48751e-52 2.50082e-52 4.14966e-52 6.79538e-52 1.09811e-51 1.75096e-51 2.75463e-51 4.27539e-51 6.54607e-51 9.88657e-51 1.4728e-50 2.16393e-50 3.13561e-50 4.48081e-50 6.31434e-50 8.77445e-50 1.20232e-49 1.62449e-49 2.16425e-49 2.84311e-49 3.68283e-49 4.70418e-49 5.92543e-49 7.36065e-49 9.01798e-49 1.0898e-48 1.29921e-48 1.52821e-48 1.77394e-48 2.03257e-48 2.29942e-48 2.56918e-48 2.83616e-48 3.09464e-48 3.33919e-48 3.56501e-48 3.76822e-48 3.9461e-48 4.09719e-48 4.22136e-48 4.31969e-48 4.39439e-48 4.44847e-48 4.48554e-48 4.50948e-48 4.52414e-48 4.53313e-48 4.5396e-48 4.54609e-48 4.55453e-48 4.56616e-48 4.58163e-48 4.60111e-48 4.62436e-48 4.65086e-48 4.67997e-48 4.71098e-48 4.74319e-48 4.77599e-48 4.80884e-48 4.84129e-48 4.87294e-48 4.90343e-48 4.93237e-48 4.95937e-48 4.98396e-48 5.00558e-48 5.02364e-48 5.03752e-48 5.04658e-48 5.05023e-48 5.04798e-48 5.03947e-48 5.02453e-48 5.00318e-48 4.97563e-48 4.94228e-48 4.9037e-48 4.86054e-48 4.81354e-48 4.76341e-48 4.71084e-48 4.65643e-48 4.60072e-48 4.54412e-48 4.48702e-48 4.42976e-48 4.37273e-48 4.31638e-48 4.26128e-48 4.20814e-48 4.15782e-48 4.11126e-48 4.06951e-48 4.03357e-48 4.00436e-48 3.98261e-48 3.96876e-48 3.96295e-48 3.96494e-48 3.97411e-48 3.98953e-48 4.00999e-48 4.03412e-48 4.0605e-48 4.08775e-48 4.11463e-48 4.14015e-48 4.1636e-48 4.18453e-48 4.20279e-48 4.21842e-48 4.23158e-48 4.24247e-48 4.25119e-48 4.25769e-48 4.26165e-48 4.26247e-48 4.25919e-48 4.25055e-48 4.23503e-48 4.2109e-48 4.17631e-48 4.12942e-48 4.0685e-48 3.99207e-48 3.89894e-48 3.78838e-48 3.66013e-48 3.51446e-48 3.35224e-48 3.17483e-48 2.98418e-48 2.78264e-48 2.57299e-48 2.35825e-48 2.14163e-48 1.92637e-48 1.7156e-48 1.51226e-48 1.31895e-48 1.13784e-48 9.70656e-49 8.18573e-49 6.82257e-49 5.61871e-49 4.57121e-49 3.67322e-49 2.9148e-49 2.28376e-49 1.7665e-49 1.3488e-49 1.01651e-49 7.56076e-50 5.54989e-50 4.02016e-50 2.8736e-50 2.02685e-50 1.41066e-50 9.68792e-51 6.56516e-51 4.39011e-51 2.89688e-51 1.88636e-51 1.2122e-51 7.68779e-52 4.812e-52 2.97284e-52 1.81286e-52 1.09128e-52 6.48502e-53 3.80473e-53 2.20397e-53 1.26064e-53 7.12053e-54 3.97197e-54 2.1883e-54 1.19083e-54 6.40144e-55 3.39955e-55 1.7837e-55 9.2473e-56 4.73738e-56 2.39842e-56 1.20004e-56 5.93312e-57 2.89584e-57 1.38861e-57 6.3908e-58 2.48354e-58 0 
0 1.50356e-76 5.34378e-76 1.73831e-75 5.56937e-75 1.76864e-74 5.57002e-74 1.73963e-73 5.38791e-73 1.6547e-72 5.03885e-72 1.52135e-71 4.55393e-71 1.35138e-70 3.97538e-70 1.1592e-69 3.35037e-69 9.59741e-69 2.72467e-68 7.66556e-68 2.13705e-67 5.90337e-67 1.61573e-66 4.38119e-66 1.1769e-65 3.1317e-65 8.25436e-65 2.15486e-64 5.57129e-64 1.42646e-63 3.61661e-63 9.07918e-63 2.25663e-62 5.55281e-62 1.35259e-61 3.2613e-61 7.78301e-61 1.83824e-60 4.29657e-60 9.93727e-60 2.27407e-59 5.14864e-59 1.15319e-58 2.55496e-58 5.599e-58 1.2135e-57 2.60094e-57 5.51249e-57 1.15518e-56 2.3933e-56 4.90172e-56 9.92351e-56 1.98566e-55 3.92671e-55 7.6735e-55 1.48169e-54 2.82671e-54 5.32746e-54 9.91825e-54 1.82382e-53 3.31223e-53 5.94029e-53 1.05197e-52 1.83935e-52 3.17504e-52 5.41027e-52 9.09981e-52 1.5106e-51 2.47475e-51 4.00073e-51 6.38171e-51 1.00436e-50 1.55939e-50 2.3884e-50 3.60838e-50 5.37698e-50 7.9024e-50 1.14538e-49 1.63713e-49 2.3075e-49 3.20706e-49 4.3951e-49 5.93903e-49 7.91303e-49 1.03956e-48 1.34662e-48 1.72003e-48 2.16644e-48 2.69092e-48 3.29637e-48 3.98286e-48 4.74719e-48 5.5825e-48 6.47821e-48 7.42017e-48 8.39115e-48 9.37161e-48 1.03407e-47 1.12775e-47 1.21621e-47 1.29772e-47 1.37086e-47 1.43467e-47 1.48862e-47 1.5327e-47 1.56734e-47 1.59335e-47 1.61187e-47 1.62423e-47 1.63185e-47 1.63617e-47 1.63851e-47 1.64e-47 1.64159e-47 1.64397e-47 1.64759e-47 1.65268e-47 1.65928e-47 1.66731e-47 1.67658e-47 1.68683e-47 1.6978e-47 1.70925e-47 1.72093e-47 1.73265e-47 1.74424e-47 1.75556e-47 1.76647e-47 1.77684e-47 1.78652e-47 1.79533e-47 1.80309e-47 1.80958e-47 1.81457e-47 1.81782e-47 1.81914e-47 1.81835e-47 1.81531e-47 1.80996e-47 1.80231e-47 1.79243e-47 1.78048e-47 1.76664e-47 1.75117e-47 1.73432e-47 1.71635e-47 1.69751e-47 1.67801e-47 1.65804e-47 1.63776e-47 1.61729e-47 1.59677e-47 1.57633e-47 1.55613e-47 1.53637e-47 1.51731e-47 1.49926e-47 1.48256e-47 1.46757e-47 1.45468e-47 1.44419e-47 1.43639e-47 1.43143e-47 1.42936e-47 1.43008e-47 1.43339e-47 1.43894e-47 1.44631e-47 1.45499e-47 1.46447e-47 1.47427e-47 1.48392e-47 1.49309e-47 1.50151e-47 1.50902e-47 1.51558e-47 1.52119e-47 1.52593e-47 1.52986e-47 1.53303e-47 1.53542e-47 1.53693e-47 1.53732e-47 1.53628e-47 1.53334e-47 1.52796e-47 1.51951e-47 1.50732e-47 1.49074e-47 1.46913e-47 1.44196e-47 1.40878e-47 1.36931e-47 1.32347e-47 1.27132e-47 1.21316e-47 1.14949e-47 1.08098e-47 1.00847e-47 9.32951e-48 8.55521e-48 7.77329e-48 6.99547e-48 6.23315e-48 5.497e-48 4.79652e-48 4.13974e-48 3.53295e-48 2.98058e-48 2.48513e-48 2.04731e-48 1.66613e-48 1.33919e-48 1.06293e-48 8.32982e-49 6.44425e-49 4.92115e-49 3.70914e-49 2.75905e-49 2.02533e-49 1.46709e-49 1.04865e-49 7.39614e-50 5.14723e-50 3.53456e-50 2.39494e-50 1.60125e-50 1.05642e-50 6.87774e-51 4.41878e-51 2.80173e-51 1.75323e-51 1.08285e-51 6.60142e-52 3.97262e-52 2.36003e-52 1.38417e-52 8.01539e-53 4.5831e-53 2.58777e-53 1.44298e-53 7.94697e-54 4.32298e-54 2.32297e-54 1.23316e-54 6.46769e-55 3.35175e-55 1.71641e-55 8.68633e-56 4.34441e-56 2.14707e-56 1.04753e-56 5.02116e-57 2.31009e-57 8.97496e-58 0 
0 4.88109e-76 1.73516e-75 5.64586e-75 1.80937e-74 5.74754e-74 1.81061e-73 5.65656e-73 1.75245e-72 5.38367e-72 1.63993e-71 4.95293e-71 1.48307e-70 4.4025e-70 1.29553e-69 3.77902e-69 1.09262e-68 3.13103e-68 8.89216e-68 2.50266e-67 6.97976e-67 1.92884e-66 5.28127e-66 1.43264e-65 3.85005e-65 1.02492e-64 2.7026e-64 7.05843e-64 1.82574e-63 4.67671e-63 1.18626e-62 2.97941e-62 7.40886e-62 1.82395e-61 4.4451e-61 1.07231e-60 2.56034e-60 6.05027e-60 1.41488e-59 3.27411e-59 7.49652e-59 1.69818e-58 3.80563e-58 8.43626e-58 1.84977e-57 4.01134e-57 8.60255e-57 1.82428e-56 3.8251e-56 7.92939e-56 1.62496e-55 3.29165e-55 6.59034e-55 1.30402e-54 2.54979e-54 4.92633e-54 9.40374e-54 1.77335e-53 3.30339e-53 6.07797e-53 1.10445e-52 1.98189e-52 3.51171e-52 6.14356e-52 1.06107e-51 1.80903e-51 3.04429e-51 5.05621e-51 8.2875e-51 1.34042e-50 2.13915e-50 3.36811e-50 5.23166e-50 8.01619e-50 1.21154e-49 1.80601e-49 2.65513e-49 3.84951e-49 5.50375e-49 7.7593e-49 1.07865e-48 1.47849e-48 1.99813e-48 2.66252e-48 3.49806e-48 4.53136e-48 5.78776e-48 7.28938e-48 9.05306e-48 1.10882e-47 1.33946e-47 1.5961e-47 1.87637e-47 2.17666e-47 2.49215e-47 2.81698e-47 3.14454e-47 3.46779e-47 3.77967e-47 4.07353e-47 4.34353e-47 4.58502e-47 4.79477e-47 4.97118e-47 5.11425e-47 5.22552e-47 5.30786e-47 5.36515e-47 5.40196e-47 5.42315e-47 5.43355e-47 5.4376e-47 5.43919e-47 5.44144e-47 5.44664e-47 5.4563e-47 5.47116e-47 5.49135e-47 5.51652e-47 5.54601e-47 5.57896e-47 5.61447e-47 5.65166e-47 5.68974e-47 5.72803e-47 5.76597e-47 5.80306e-47 5.83885e-47 5.87289e-47 5.90468e-47 5.93366e-47 5.95918e-47 5.98053e-47 5.99697e-47 6.00772e-47 6.01211e-47 6.00953e-47 5.99957e-47 5.98202e-47 5.95689e-47 5.92444e-47 5.88516e-47 5.83969e-47 5.78884e-47 5.73346e-47 5.67441e-47 5.61249e-47 5.54843e-47 5.48283e-47 5.4162e-47 5.34897e-47 5.28155e-47 5.21438e-47 5.14798e-47 5.08304e-47 5.02037e-47 4.961e-47 4.90605e-47 4.85676e-47 4.81433e-47 4.77984e-47 4.75418e-47 4.73788e-47 4.7311e-47 4.73354e-47 4.7445e-47 4.76285e-47 4.78716e-47 4.81581e-47 4.84709e-47 4.87937e-47 4.91119e-47 4.94138e-47 4.96909e-47 4.99382e-47 5.0154e-47 5.0339e-47 5.04955e-47 5.06258e-47 5.07317e-47 5.08128e-47 5.08655e-47 5.08829e-47 5.08538e-47 5.07634e-47 5.05938e-47 5.03241e-47 4.99325e-47 4.93969e-47 4.86962e-47 4.78122e-47 4.67303e-47 4.54407e-47 4.39396e-47 4.22293e-47 4.03187e-47 3.82236e-47 3.59659e-47 3.35731e-47 3.10777e-47 2.85157e-47 2.59251e-47 2.3345e-47 2.08132e-47 1.83656e-47 1.60342e-47 1.38459e-47 1.18223e-47 9.97855e-48 8.32347e-48 6.85978e-48 5.58459e-48 4.49017e-48 3.56492e-48 2.79437e-48 2.16226e-48 1.65147e-48 1.24489e-48 9.26089e-49 6.79841e-49 4.92463e-49 3.51995e-49 2.48247e-49 1.72747e-49 1.18609e-49 8.03546e-50 5.37149e-50 3.54309e-50 2.30616e-50 1.48126e-50 9.3893e-51 5.87375e-51 3.62663e-51 2.21017e-51 1.32957e-51 7.89565e-52 4.62904e-52 2.6795e-52 1.53147e-52 8.64355e-53 4.8177e-53 2.65209e-53 1.44203e-53 7.7453e-54 4.10974e-54 2.15448e-54 1.11599e-54 5.71225e-55 2.88945e-55 1.44445e-55 7.1353e-56 3.47958e-56 1.66712e-56 7.66677e-57 2.97771e-57 0 
0 1.56054e-75 5.54877e-75 1.80595e-74 5.78933e-74 1.83954e-73 5.79673e-73 1.81153e-72 5.61403e-72 1.72523e-71 5.25699e-71 1.58825e-70 4.75739e-70 1.41273e-69 4.15874e-69 1.21354e-68 3.50998e-68 1.00621e-67 2.85876e-67 8.04904e-67 2.24574e-66 6.2086e-66 1.70067e-65 4.61536e-65 1.24086e-64 3.30476e-64 8.71822e-64 2.278e-63 5.89506e-63 1.51077e-62 3.83398e-62 9.63412e-62 2.39691e-61 5.90383e-61 1.43955e-60 3.47451e-60 8.30043e-60 1.96251e-59 4.59192e-59 1.06318e-58 2.43567e-58 5.52063e-58 1.23788e-57 2.74572e-57 6.02389e-57 1.30709e-56 2.8048e-56 5.95152e-56 1.24865e-55 2.59002e-55 5.31096e-55 1.07649e-54 2.15661e-54 4.2699e-54 8.35421e-54 1.61508e-53 3.08489e-53 5.82104e-53 1.08501e-52 1.99755e-52 3.63202e-52 6.52144e-52 1.15622e-51 2.02394e-51 3.4976e-51 5.96649e-51 1.00462e-50 1.66946e-50 2.73782e-50 4.43042e-50 7.0739e-50 1.11432e-49 1.73165e-49 2.65447e-49 4.01352e-49 5.98512e-49 8.80219e-49 1.27659e-48 1.82571e-48 2.57459e-48 3.57984e-48 4.90774e-48 6.63364e-48 8.84033e-48 1.16153e-47 1.50467e-47 1.92182e-47 2.42026e-47 3.00549e-47 3.6805e-47 4.44509e-47 5.29533e-47 6.22318e-47 7.2164e-47 8.25879e-47 9.33075e-47 1.04102e-46 1.14735e-46 1.24974e-46 1.34598e-46 1.43414e-46 1.5127e-46 1.58061e-46 1.63738e-46 1.68304e-46 1.71815e-46 1.74367e-46 1.76094e-46 1.7715e-46 1.77698e-46 1.77899e-46 1.77902e-46 1.77835e-46 1.77802e-46 1.77878e-46 1.78111e-46 1.78527e-46 1.79127e-46 1.79899e-46 1.8082e-46 1.81861e-46 1.82991e-46 1.8418e-46 1.85403e-46 1.86635e-46 1.87858e-46 1.89055e-46 1.90211e-46 1.91312e-46 1.92341e-46 1.9328e-46 1.94107e-46 1.948e-46 1.95334e-46 1.95684e-46 1.95827e-46 1.95745e-46 1.95424e-46 1.94856e-46 1.94043e-46 1.92993e-46 1.91721e-46 1.90248e-46 1.88601e-46 1.86808e-46 1.84896e-46 1.82891e-46 1.80817e-46 1.78694e-46 1.76537e-46 1.74361e-46 1.72179e-46 1.70004e-46 1.67854e-46 1.6575e-46 1.6372e-46 1.61796e-46 1.60015e-46 1.58417e-46 1.57041e-46 1.55923e-46 1.55091e-46 1.54564e-46 1.54345e-46 1.54426e-46 1.54784e-46 1.55382e-46 1.56173e-46 1.57104e-46 1.58121e-46 1.5917e-46 1.60203e-46 1.61183e-46 1.62082e-46 1.62884e-46 1.63584e-46 1.64185e-46 1.64694e-46 1.6512e-46 1.65469e-46 1.6574e-46 1.65923e-46 1.65994e-46 1.65918e-46 1.65647e-46 1.65124e-46 1.64279e-46 1.63042e-46 1.61341e-46 1.59106e-46 1.56276e-46 1.52804e-46 1.48655e-46 1.43815e-46 1.38291e-46 1.32108e-46 1.25317e-46 1.17987e-46 1.10207e-46 1.0208e-46 9.37252e-47 8.52654e-47 7.68284e-47 6.85392e-47 6.05159e-47 5.28644e-47 4.56753e-47 3.90204e-47 3.29512e-47 2.74983e-47 2.26722e-47 1.84645e-47 1.4851e-47 1.17943e-47 9.24728e-48 7.15697e-48 5.4672e-48 4.12173e-48 3.06646e-48 2.25119e-48 1.63073e-48 1.16555e-48 8.21956e-49 5.71916e-49 3.92628e-49 2.65951e-49 1.77746e-49 1.17217e-49 7.62763e-50 4.89794e-50 3.10373e-50 1.94101e-50 1.19803e-50 7.29848e-51 4.38887e-51 2.60531e-51 1.52681e-51 8.83414e-52 5.04697e-52 2.84722e-52 1.58624e-52 8.72804e-53 4.74349e-53 2.54655e-53 1.35057e-53 7.07674e-54 3.66384e-54 1.87442e-54 9.47673e-55 4.7351e-55 2.33787e-55 1.13951e-55 5.45696e-56 2.50846e-56 9.73951e-57 0 
0 4.94502e-75 1.7587e-74 5.72564e-74 1.836e-73 5.83561e-73 1.83947e-72 5.75033e-72 1.78264e-71 5.47998e-71 1.67038e-70 5.04833e-70 1.51269e-69 4.49362e-69 1.32331e-68 3.86291e-68 1.11772e-67 3.20543e-67 9.11066e-67 2.56622e-66 7.16291e-66 1.98111e-65 5.42902e-65 1.47401e-64 3.96471e-64 1.0564e-63 2.78817e-63 7.28872e-63 1.8871e-62 4.83857e-62 1.22853e-61 3.08865e-61 7.68834e-61 1.89471e-60 4.62239e-60 1.11627e-59 2.66817e-59 6.312e-59 1.47772e-58 3.42338e-58 7.84724e-58 1.77968e-57 3.99291e-57 8.86187e-57 1.9454e-56 4.2238e-56 9.06917e-56 1.92558e-55 4.04248e-55 8.3904e-55 1.72158e-54 3.49173e-54 6.99971e-54 1.38677e-53 2.715e-53 5.25215e-53 1.00383e-52 1.8954e-52 3.53517e-52 6.51253e-52 1.18488e-51 2.12883e-51 3.77664e-51 6.61495e-51 1.14383e-50 1.95239e-50 3.28927e-50 5.46915e-50 8.97401e-50 1.45298e-49 2.32112e-49 3.65817e-49 5.68749e-49 8.72233e-49 1.31937e-48 1.96828e-48 2.89578e-48 4.20121e-48 6.01017e-48 8.47777e-48 1.17907e-47 1.61675e-47 2.18565e-47 2.91305e-47 3.82773e-47 4.95865e-47 6.33323e-47 7.97524e-47 9.90248e-47 1.21244e-46 1.46398e-46 1.74352e-46 2.04833e-46 2.37431e-46 2.71606e-46 3.06704e-46 3.41993e-46 3.76695e-46 4.10036e-46 4.41293e-46 4.69836e-46 4.95168e-46 5.16958e-46 5.3505e-46 5.49468e-46 5.60407e-46 5.68201e-46 5.73298e-46 5.76212e-46 5.77488e-46 5.77662e-46 5.77225e-46 5.766e-46 5.76127e-46 5.76051e-46 5.76529e-46 5.77635e-46 5.79376e-46 5.81707e-46 5.84548e-46 5.878e-46 5.9136e-46 5.95128e-46 5.99014e-46 6.02943e-46 6.06849e-46 6.1068e-46 6.14385e-46 6.17914e-46 6.21216e-46 6.24231e-46 6.2689e-46 6.29118e-46 6.30836e-46 6.31965e-46 6.32431e-46 6.32172e-46 6.31145e-46 6.29326e-46 6.26717e-46 6.23345e-46 6.19261e-46 6.14534e-46 6.09247e-46 6.03489e-46 5.97351e-46 5.90917e-46 5.84262e-46 5.77448e-46 5.70528e-46 5.63545e-46 5.5654e-46 5.4956e-46 5.42657e-46 5.35902e-46 5.29381e-46 5.23198e-46 5.17475e-46 5.12339e-46 5.07917e-46 5.04324e-46 5.01652e-46 4.99958e-46 4.9926e-46 4.99528e-46 5.00685e-46 5.02615e-46 5.05168e-46 5.08171e-46 5.11448e-46 5.14825e-46 5.18151e-46 5.21304e-46 5.24195e-46 5.26775e-46 5.29027e-46 5.30961e-46 5.32605e-46 5.33987e-46 5.35128e-46 5.36027e-46 5.36652e-46 5.36931e-46 5.36751e-46 5.35959e-46 5.34365e-46 5.31753e-46 5.27891e-46 5.22544e-46 5.15486e-46 5.06519e-46 4.95481e-46 4.82259e-46 4.668e-46 4.49117e-46 4.29291e-46 4.07474e-46 3.83886e-46 3.58807e-46 3.32572e-46 3.05557e-46 2.78164e-46 2.50806e-46 2.23892e-46 1.97807e-46 1.72902e-46 1.49476e-46 1.27767e-46 1.07949e-46 9.01282e-47 7.43423e-47 6.0569e-47 4.87325e-47 3.87137e-47 3.03613e-47 2.35033e-47 1.79572e-47 1.35397e-47 1.0074e-47 7.39601e-48 5.35758e-48 3.82915e-48 2.70016e-48 1.87857e-48 1.28948e-48 8.73293e-49 5.83539e-49 3.84733e-49 2.5029e-49 1.60673e-49 1.01784e-49 6.36323e-50 3.92612e-50 2.39093e-50 1.4372e-50 8.52798e-51 4.9956e-51 2.88919e-51 1.64986e-51 9.30327e-52 5.1806e-52 2.84917e-52 1.5477e-52 8.30474e-53 4.40224e-53 2.30552e-53 1.19303e-53 6.10039e-54 3.08266e-54 1.53947e-54 7.59692e-55 3.70096e-55 1.77145e-55 8.13939e-56 3.15919e-56 0 
0 1.55392e-74 5.52788e-74 1.80017e-73 5.77424e-73 1.83587e-72 5.78877e-72 1.8102e-71 5.61359e-71 1.72625e-70 5.26369e-70 1.59139e-69 4.7702e-69 1.41756e-68 4.17609e-68 1.21953e-67 3.53005e-67 1.01277e-66 2.87973e-66 8.11477e-66 2.26599e-65 6.26997e-65 1.71898e-64 4.66924e-64 1.25649e-63 3.34949e-63 8.84458e-63 2.31324e-62 5.99211e-62 1.53717e-61 3.90493e-61 9.82252e-61 2.44634e-60 6.03199e-60 1.47239e-59 3.55767e-59 8.50855e-59 2.01399e-58 4.71775e-58 1.09358e-57 2.50826e-57 5.69191e-57 1.27783e-56 2.83776e-56 6.23347e-56 1.35424e-55 2.90962e-55 6.18172e-55 1.2986e-54 2.69707e-54 5.53759e-54 1.12388e-53 2.25447e-53 4.46947e-53 8.75609e-53 1.69498e-52 3.24173e-52 6.12496e-52 1.14314e-51 2.10729e-51 3.83647e-51 6.89729e-51 1.2244e-50 2.14594e-50 3.71298e-50 6.34152e-50 1.06903e-49 1.77854e-49 2.91997e-49 4.73033e-49 7.56071e-49 1.19221e-48 1.85449e-48 2.84538e-48 4.30593e-48 6.42641e-48 9.45835e-48 1.37271e-47 1.9644e-47 2.77172e-47 3.8558e-47 5.28821e-47 7.15022e-47 9.53102e-47 1.25247e-46 1.62256e-46 2.07231e-46 2.60941e-46 3.23958e-46 3.96577e-46 4.78742e-46 5.69989e-46 6.69405e-46 7.75623e-46 8.8685e-46 1.00093e-45 1.11544e-45 1.22784e-45 1.33558e-45 1.43631e-45 1.52798e-45 1.60899e-45 1.67829e-45 1.73541e-45 1.78047e-45 1.81414e-45 1.83756e-45 1.85224e-45 1.85987e-45 1.86227e-45 1.8612e-45 1.85828e-45 1.85488e-45 1.85212e-45 1.85079e-45 1.85138e-45 1.85412e-45 1.85904e-45 1.86595e-45 1.87461e-45 1.88466e-45 1.89576e-45 1.90759e-45 1.91983e-45 1.93225e-45 1.94463e-45 1.95678e-45 1.96855e-45 1.97977e-45 1.99028e-45 1.99988e-45 2.00836e-45 2.01547e-45 2.02096e-45 2.02457e-45 2.02607e-45 2.02526e-45 2.022e-45 2.01622e-45 2.00792e-45 1.99719e-45 1.98418e-45 1.96913e-45 1.95229e-45 1.93396e-45 1.91441e-45 1.89393e-45 1.87275e-45 1.85106e-45 1.82903e-45 1.80681e-45 1.78451e-45 1.76229e-45 1.74031e-45 1.71879e-45 1.69802e-45 1.67831e-45 1.66007e-45 1.6437e-45 1.6296e-45 1.61814e-45 1.60963e-45 1.60424e-45 1.60203e-45 1.6029e-45 1.60662e-45 1.6128e-45 1.62097e-45 1.63058e-45 1.64105e-45 1.65184e-45 1.66246e-45 1.67252e-45 1.68175e-45 1.68998e-45 1.69716e-45 1.70334e-45 1.7086e-45 1.71305e-45 1.71675e-45 1.71972e-45 1.72184e-45 1.7229e-45 1.72254e-45 1.72028e-45 1.7155e-45 1.70752e-45 1.69559e-45 1.67896e-45 1.65689e-45 1.62875e-45 1.59398e-45 1.55222e-45 1.50329e-45 1.44718e-45 1.38415e-45 1.31465e-45 1.23937e-45 1.1592e-45 1.07519e-45 9.88546e-46 9.00552e-46 8.12543e-46 7.2584e-46 6.41698e-46 5.61259e-46 4.85505e-46 4.15229e-46 3.51009e-46 2.93205e-46 2.41959e-46 1.97211e-46 1.58728e-46 1.26135e-46 9.89476e-47 7.66141e-47 5.85455e-47 4.41489e-47 3.28513e-47 2.41193e-47 1.74717e-47 1.24869e-47 8.80456e-48 6.12486e-48 4.20359e-48 2.84633e-48 1.90153e-48 1.25339e-48 8.15182e-49 5.23148e-49 3.313e-49 2.07047e-49 1.27701e-49 7.77374e-50 4.67094e-50 2.77044e-50 1.62219e-50 9.37762e-51 5.35255e-51 3.01678e-51 1.6791e-51 9.22992e-52 5.01127e-52 2.6876e-52 1.42393e-52 7.45342e-53 3.85486e-53 1.97009e-53 9.94998e-54 4.96634e-54 2.44947e-54 1.19267e-54 5.70576e-55 2.62044e-55 1.01674e-55 0 
0 4.84237e-74 1.72304e-73 5.61278e-73 1.80091e-72 5.72766e-72 1.8066e-71 5.65127e-71 1.7531e-70 5.39288e-70 1.64498e-69 4.97514e-69 1.49185e-68 4.43503e-68 1.30705e-67 3.81843e-67 1.10573e-66 3.17363e-66 9.02777e-66 2.54503e-65 7.1099e-65 1.96818e-64 5.39845e-64 1.46705e-63 3.94969e-63 1.0534e-62 2.78294e-62 7.28223e-62 1.88731e-61 4.84407e-61 1.23121e-60 3.09865e-60 7.72153e-60 1.90497e-59 4.65257e-59 1.12482e-58 2.6917e-58 6.37505e-58 1.49424e-57 3.46577e-57 7.95401e-57 1.8061e-56 4.0572e-56 9.01583e-56 1.98171e-55 4.30812e-55 9.26214e-55 1.96911e-54 4.13928e-54 8.60267e-54 1.76748e-53 3.58961e-53 7.20557e-53 1.42947e-52 2.80239e-52 5.42851e-52 1.03894e-51 1.96433e-51 3.66865e-51 6.76746e-51 1.23289e-50 2.21801e-50 3.93999e-50 6.90996e-50 1.19636e-49 2.0446e-49 3.44884e-49 5.74134e-49 9.43161e-49 1.5288e-48 2.44491e-48 3.85733e-48 6.00319e-48 9.21533e-48 1.3952e-47 2.08319e-47 3.06726e-47 4.45323e-47 6.3749e-47 8.99751e-47 1.25199e-46 1.71747e-46 2.32262e-46 3.09638e-46 4.06927e-46 5.27189e-46 6.73306e-46 8.47754e-46 1.05235e-45 1.28802e-45 1.55451e-45 1.85024e-45 2.17217e-45 2.51578e-45 2.87517e-45 3.24325e-45 3.61211e-45 3.97343e-45 4.31895e-45 4.64104e-45 4.93309e-45 5.19e-45 5.40846e-45 5.58707e-45 5.72636e-45 5.82867e-45 5.89783e-45 5.93881e-45 5.95727e-45 5.95916e-45 5.95024e-45 5.93579e-45 5.92028e-45 5.90729e-45 5.89935e-45 5.89806e-45 5.90411e-45 5.91749e-45 5.93763e-45 5.96362e-45 5.99434e-45 6.02864e-45 6.06541e-45 6.10366e-45 6.14257e-45 6.18144e-45 6.21967e-45 6.25675e-45 6.29215e-45 6.32532e-45 6.35565e-45 6.38245e-45 6.40495e-45 6.42233e-45 6.4338e-45 6.4386e-45 6.4361e-45 6.42585e-45 6.40761e-45 6.38141e-45 6.34752e-45 6.30645e-45 6.25891e-45 6.20573e-45 6.14782e-45 6.08611e-45 6.02143e-45 5.95454e-45 5.88608e-45 5.81655e-45 5.74638e-45 5.676e-45 5.60583e-45 5.53641e-45 5.46843e-45 5.40278e-45 5.3405e-45 5.28282e-45 5.23104e-45 5.18645e-45 5.15023e-45 5.12332e-45 5.10631e-45 5.09936e-45 5.1022e-45 5.11403e-45 5.13368e-45 5.15962e-45 5.1901e-45 5.2233e-45 5.2575e-45 5.29114e-45 5.323e-45 5.35219e-45 5.37822e-45 5.40097e-45 5.42055e-45 5.43727e-45 5.45147e-45 5.4634e-45 5.47309e-45 5.48024e-45 5.48417e-45 5.48376e-45 5.47746e-45 5.46338e-45 5.43932e-45 5.40291e-45 5.35172e-45 5.28342e-45 5.19591e-45 5.08745e-45 4.95678e-45 4.80323e-45 4.62677e-45 4.42809e-45 4.2086e-45 3.97038e-45 3.71621e-45 3.4494e-45 3.17375e-45 2.89335e-45 2.61247e-45 2.33534e-45 2.06603e-45 1.80823e-45 1.56514e-45 1.33938e-45 1.13285e-45 9.46768e-46 7.8165e-46 6.37355e-46 5.13173e-46 4.07928e-46 3.2009e-46 2.47898e-46 1.89467e-46 1.42895e-46 1.06338e-46 7.80759e-47 5.65572e-47 4.04191e-47 2.84974e-47 1.98218e-47 1.36019e-47 9.20837e-48 6.15041e-48 4.05302e-48 2.63526e-48 1.69067e-48 1.07031e-48 6.68656e-49 4.12253e-49 2.50856e-49 1.50666e-49 8.93248e-50 5.22789e-50 3.02075e-50 1.72336e-50 9.7083e-51 5.40079e-51 2.96727e-51 1.6102e-51 8.63115e-52 4.57046e-52 2.39108e-52 1.23598e-52 6.31324e-53 3.18677e-53 1.58974e-53 7.83653e-54 3.8136e-54 1.82348e-54 8.37058e-55 3.24666e-55 0 
0 1.49635e-73 5.32572e-73 1.73537e-72 5.56985e-72 1.77202e-71 5.5911e-71 1.74956e-70 5.42926e-70 1.67074e-69 5.09808e-69 1.54245e-68 4.62696e-68 1.37605e-67 4.05698e-67 1.18569e-66 3.43491e-66 9.86293e-66 2.80683e-65 7.91624e-65 2.21251e-64 6.12753e-64 1.68148e-63 4.57166e-63 1.23141e-62 3.28584e-62 8.68513e-62 2.27384e-61 5.89612e-61 1.51413e-60 3.85051e-60 9.69616e-60 2.41753e-59 5.96766e-59 1.45834e-58 3.52782e-58 8.44708e-58 2.00182e-57 4.69493e-57 1.08963e-56 2.50229e-56 5.68552e-56 1.27802e-55 2.84184e-55 6.25057e-55 1.35975e-54 2.92533e-54 6.22342e-54 1.30912e-53 2.72264e-53 5.59774e-53 1.13765e-52 2.28526e-52 4.5368e-52 8.90038e-52 1.72532e-51 3.30435e-51 6.25196e-51 1.16847e-50 2.15695e-50 3.93228e-50 7.07918e-50 1.25838e-49 2.20845e-49 3.82617e-49 6.54331e-49 1.10444e-48 1.83975e-48 3.02412e-48 4.90482e-48 7.84854e-48 1.23895e-47 1.92923e-47 2.96301e-47 4.48818e-47 6.70438e-47 9.87561e-47 1.43436e-46 2.05404e-46 2.89998e-46 4.03637e-46 5.53836e-46 7.49117e-46 9.9882e-46 1.31277e-45 1.70081e-45 2.17218e-45 2.73478e-45 3.39438e-45 4.15375e-45 5.01192e-45 5.96356e-45 6.9986e-45 8.10218e-45 9.25497e-45 1.04339e-44 1.16133e-44 1.2766e-44 1.38656e-44 1.48874e-44 1.58104e-44 1.66183e-44 1.73008e-44 1.78538e-44 1.82796e-44 1.85861e-44 1.87862e-44 1.88963e-44 1.89349e-44 1.89214e-44 1.88747e-44 1.88118e-44 1.8747e-44 1.86919e-44 1.86545e-44 1.86398e-44 1.865e-44 1.86847e-44 1.87421e-44 1.8819e-44 1.89118e-44 1.90166e-44 1.91298e-44 1.92483e-44 1.93691e-44 1.94901e-44 1.96094e-44 1.97252e-44 1.98359e-44 1.99398e-44 2.00348e-44 2.01189e-44 2.01895e-44 2.02441e-44 2.02802e-44 2.02954e-44 2.02878e-44 2.02558e-44 2.01988e-44 2.01168e-44 2.00106e-44 1.9882e-44 1.9733e-44 1.95665e-44 1.93851e-44 1.91918e-44 1.89892e-44 1.87798e-44 1.85654e-44 1.83477e-44 1.81281e-44 1.79077e-44 1.76879e-44 1.74705e-44 1.72575e-44 1.70517e-44 1.68565e-44 1.66756e-44 1.65132e-44 1.63734e-44 1.62598e-44 1.61754e-44 1.61221e-44 1.61005e-44 1.61096e-44 1.6147e-44 1.62089e-44 1.62906e-44 1.63865e-44 1.6491e-44 1.65985e-44 1.67042e-44 1.68042e-44 1.68958e-44 1.69775e-44 1.70489e-44 1.71105e-44 1.71632e-44 1.72082e-44 1.72463e-44 1.72778e-44 1.73017e-44 1.73159e-44 1.7317e-44 1.73002e-44 1.72594e-44 1.71879e-44 1.70781e-44 1.69223e-44 1.6713e-44 1.64437e-44 1.61085e-44 1.57034e-44 1.5226e-44 1.4676e-44 1.40552e-44 1.33679e-44 1.26205e-44 1.18214e-44 1.0981e-44 1.01112e-44 9.22485e-45 8.33555e-45 7.45679e-45 6.60153e-45 5.78171e-45 5.00769e-45 4.28794e-45 3.6288e-45 3.03432e-45 2.50632e-45 2.04451e-45 1.64678e-45 1.30948e-45 1.0278e-45 7.96171e-46 6.0862e-46 4.59077e-46 3.41659e-46 2.50865e-46 1.81723e-46 1.29864e-46 9.15524e-47 6.36724e-47 4.36855e-47 2.95689e-47 1.9745e-47 1.30082e-47 8.4554e-48 5.4229e-48 3.43188e-48 2.1432e-48 1.32085e-48 8.03405e-49 4.82323e-49 2.85823e-49 1.67205e-49 9.65668e-50 5.50646e-50 3.10041e-50 1.72389e-50 9.46627e-51 5.13416e-51 2.75056e-51 1.45571e-51 7.61144e-52 3.93226e-52 2.00742e-52 1.01273e-52 5.0492e-53 2.48757e-53 1.20988e-53 5.78195e-54 2.65287e-54 1.02858e-54 0 
0 4.58486e-73 1.63224e-72 5.32025e-72 1.70814e-71 5.43616e-71 1.71581e-70 5.37094e-70 1.66731e-69 5.13264e-69 1.56675e-68 4.7421e-68 1.42306e-67 4.23385e-67 1.24876e-66 3.65113e-66 1.05817e-65 3.03971e-65 8.65436e-65 2.44193e-64 6.82807e-64 1.89192e-63 5.19417e-63 1.4129e-62 3.80763e-62 1.01653e-61 2.68827e-61 7.04182e-61 1.82694e-60 4.69416e-60 1.19441e-59 3.0094e-59 7.50761e-59 1.85433e-58 4.5342e-58 1.09751e-57 2.62951e-57 6.23539e-57 1.46332e-56 3.39835e-56 7.80923e-56 1.77552e-55 3.99375e-55 8.88659e-55 1.95592e-54 4.25782e-54 9.16655e-54 1.95148e-53 4.10794e-53 8.54952e-53 1.75904e-52 3.57755e-52 7.19164e-52 1.42876e-51 2.80501e-51 5.44142e-51 1.04291e-50 1.97468e-50 3.69328e-50 6.82264e-50 1.24472e-49 2.24244e-49 3.98897e-49 7.00554e-49 1.21456e-48 2.0785e-48 3.51065e-48 5.85177e-48 9.62513e-48 1.56207e-47 2.50109e-47 3.95047e-47 6.15486e-47 9.45802e-47 1.43336e-46 2.14215e-46 3.1568e-46 4.58687e-46 6.57096e-46 9.28021e-46 1.29205e-45 1.77327e-45 2.399e-45 3.19914e-45 4.20511e-45 5.44833e-45 6.95823e-45 8.75986e-45 1.08712e-44 1.33008e-44 1.60447e-44 1.90852e-44 2.23891e-44 2.59079e-44 2.95788e-44 3.33271e-44 3.70698e-44 4.07201e-44 4.41926e-44 4.74087e-44 5.03016e-44 5.28204e-44 5.49332e-44 5.66283e-44 5.79146e-44 5.88191e-44 5.93842e-44 5.9664e-44 5.9719e-44 5.9612e-44 5.94036e-44 5.91486e-44 5.88932e-44 5.86737e-44 5.85156e-44 5.84345e-44 5.84364e-44 5.85204e-44 5.86796e-44 5.89037e-44 5.91805e-44 5.94975e-44 5.98428e-44 6.0206e-44 6.0578e-44 6.09515e-44 6.13204e-44 6.16792e-44 6.20225e-44 6.23449e-44 6.26403e-44 6.29016e-44 6.31214e-44 6.32917e-44 6.34045e-44 6.34523e-44 6.34291e-44 6.33302e-44 6.31534e-44 6.28988e-44 6.25692e-44 6.21696e-44 6.17068e-44 6.11893e-44 6.06258e-44 6.00254e-44 5.93963e-44 5.87459e-44 5.80803e-44 5.74044e-44 5.67224e-44 5.6038e-44 5.53555e-44 5.468e-44 5.40182e-44 5.33786e-44 5.27716e-44 5.22091e-44 5.1704e-44 5.12689e-44 5.09156e-44 5.06533e-44 5.04879e-44 5.04211e-44 5.04502e-44 5.05674e-44 5.07611e-44 5.10162e-44 5.13156e-44 5.16414e-44 5.19765e-44 5.23059e-44 5.26174e-44 5.29026e-44 5.31569e-44 5.33792e-44 5.35711e-44 5.37359e-44 5.38775e-44 5.39985e-44 5.40999e-44 5.4179e-44 5.42295e-44 5.42408e-44 5.4198e-44 5.40827e-44 5.38732e-44 5.35461e-44 5.30773e-44 5.24432e-44 5.16225e-44 5.05969e-44 4.93529e-44 4.78824e-44 4.61834e-44 4.42612e-44 4.21279e-44 3.98026e-44 3.73115e-44 3.46865e-44 3.19643e-44 2.91855e-44 2.63924e-44 2.3628e-44 2.09334e-44 1.83466e-44 1.59011e-44 1.36242e-44 1.15366e-44 9.65183e-45 7.97621e-45 6.5094e-45 5.24511e-45 4.17217e-45 3.27563e-45 2.53802e-45 1.9405e-45 1.4639e-45 1.08957e-45 8.00052e-46 5.79542e-46 4.14135e-46 2.91933e-46 2.03005e-46 1.39258e-46 9.42383e-47 6.29135e-47 4.14367e-47 2.6926e-47 1.72633e-47 1.09212e-47 6.81764e-48 4.19998e-48 2.55354e-48 1.53232e-48 9.07628e-49 5.307e-49 3.06346e-49 1.74596e-49 9.82548e-50 5.46022e-50 2.99671e-50 1.62441e-50 8.69767e-51 4.60054e-51 2.40411e-51 1.24131e-51 6.33322e-52 3.1932e-52 1.59113e-52 7.83438e-53 3.80823e-53 1.81892e-53 8.34134e-54 3.23293e-54 0 