# vtk DataFile Version 3.0
Gray-Scott Simulation Output
ASCII
DATASET STRUCTURED_POINTS
DIMENSIONS 256 256 1
SPACING 1.0 1.0 1.0
ORIGIN 0 0 0
POINT_DATA 65536
SCALARS u double
LOOKUP_TABLE default
0 0 0 0 0 0 0 0 0 0 0 0 0 0 0 0 0 0 0 0 0 0 0 0 0 0 0 0 0 0 0 0 0 0 0 0 0 0 0 0 0 0 0 0 0 0 0 0 0 0 0 0 0 0 0 0 0 0 0 0 0 0 0 0 0 0 0 0 0 0 0 0 0 0 0 0 0 0 0 0 0 0 0 0 0 0 0 0 0 0 0 0 0 0 0 0 0 0 0 0 0 0 0 0 0 0 0 0 0 0 0 0 0 0 0 0 0 0 0 0 0 0 0 0 0 0 0 0 0 0 0 0 0 0 0 0 0 0 0 0 0 0 0 0 0 0 0 0 0 0 0 0 0 0 0 0 0 0 0 0 0 0 0 0 0 0 0 0 0 0 0 0 0 0 0 0 0 0 0 0 0 0 0 0 0 0 0 0 0 0 0 0 0 0 0 0 0 0 0 0 0 0 0 0 0 0 0 0 0 0 0 0 0 0 0 0 0 0 0 0 0 0 0 0 0 0 0 0 0 0 0 0 0 0 0 0 0 0 0 0 0 0 0 0 0 0 0 0 0 0 0 0 0 0 0 0 
0 1.53761e-73 4.95836e-73 1.43767e-72 4.09226e-72 1.15449e-71 3.23145e-71 8.97478e-71 2.47318e-70 6.76194e-70 1.83422e-69 4.93596e-69 1.31769e-68 3.48939e-68 9.16563e-68 2.38796e-67 6.17053e-67 1.58133e-66 4.0189e-66 1.01286e-65 2.53121e-65 6.27216e-65 1.54096e-64 3.75342e-64 9.06357e-64 2.16961e-63 5.14811e-63 1.2108e-62 2.82246e-62 6.52063e-62 1.49289e-61 3.38702e-61 7.61428e-61 1.69603e-60 3.74288e-60 8.18302e-60 1.77227e-59 3.80209e-59 8.07913e-59 1.70029e-58 3.54381e-58 7.3143e-58 1.49486e-57 3.02496e-57 6.0604e-57 1.20202e-56 2.36003e-56 4.58654e-56 8.82232e-56 1.67949e-55 3.16397e-55 5.89814e-55 1.0879e-54 1.9853e-54 3.58413e-54 6.40074e-54 1.13065e-53 1.97537e-53 3.41309e-53 5.8317e-53 9.85269e-53 1.64585e-52 2.71812e-52 4.43765e-52 7.16158e-52 1.14236e-51 1.80095e-51 2.80589e-51 4.31994e-51 6.57192e-51 9.8783e-51 1.46696e-50 2.15215e-50 3.119e-50 4.46501e-50 6.31348e-50 8.81725e-50 1.21617e-49 1.65667e-49 2.22864e-49 2.9607e-49 3.88409e-49 5.03177e-49 6.43703e-49 8.13177e-49 1.01444e-48 1.24975e-48 1.52052e-48 1.82708e-48 2.16848e-48 2.54226e-48 2.94447e-48 3.36957e-48 3.81061e-48 4.25946e-48 4.7071e-48 5.14411e-48 5.56112e-48 5.94929e-48 6.30088e-48 6.6096e-48 6.87102e-48 7.08273e-48 7.24444e-48 7.35788e-48 7.42664e-48 7.45582e-48 7.45161e-48 7.4209e-48 7.37078e-48 7.30818e-48 7.23944e-48 7.17013e-48 7.10479e-48 7.04687e-48 6.99874e-48 6.96178e-48 6.93644e-48 6.92248e-48 6.9191e-48 6.92512e-48 6.93916e-48 6.95973e-48 6.98535e-48 7.01462e-48 7.04624e-48 7.07902e-48 7.11189e-48 7.14386e-48 7.17401e-48 7.20145e-48 7.22537e-48 7.24496e-48 7.25946e-48 7.2682e-48 7.27058e-48 7.26612e-48 7.25451e-48 7.23559e-48 7.20939e-48 7.1761e-48 7.1361e-48 7.08989e-48 7.0381e-48 6.98142e-48 6.92058e-48 6.85629e-48 6.78929e-48 6.72025e-48 6.64982e-48 6.57866e-48 6.5074e-48 6.43675e-48 6.36744e-48 6.30029e-48 6.23621e-48 6.17615e-48 6.12112e-48 6.07211e-48 6.03005e-48 5.9957e-48 5.96967e-48 5.95227e-48 5.94352e-48 5.94312e-48 5.95047e-48 5.96467e-48 5.98462e-48 6.00906e-48 6.03667e-48 6.06617e-48 6.09638e-48 6.12631e-48 6.15516e-48 6.18238e-48 6.20762e-48 6.23071e-48 6.25157e-48 6.27016e-48 6.28639e-48 6.3e-48 6.31055e-48 6.31729e-48 6.3192e-48 6.31492e-48 6.30279e-48 6.28091e-48 6.24718e-48 6.19938e-48 6.13531e-48 6.05283e-48 5.95006e-48 5.82539e-48 5.67769e-48 5.50632e-48 5.31126e-48 5.09313e-48 4.85326e-48 4.59364e-48 4.31693e-48 4.02637e-48 3.72566e-48 3.41888e-48 3.1103e-48 2.80423e-48 2.50484e-48 2.21602e-48 1.94122e-48 1.68334e-48 1.44466e-48 1.22676e-48 1.03055e-48 8.56285e-49 7.03622e-49 5.71703e-49 4.59259e-49 3.64716e-49 2.863e-49 2.22138e-49 1.70346e-49 1.291e-49 9.66904e-50 7.15641e-50 5.2342e-50 3.78307e-50 2.70195e-50 1.90699e-50 1.33004e-50 9.16719e-51 6.24411e-51 4.20322e-51 2.79632e-51 1.83866e-51 1.19494e-51 7.67607e-52 4.87422e-52 3.05962e-52 1.89867e-52 1.16488e-52 7.06614e-53 4.23825e-53 2.51374e-53 1.47439e-53 8.5525e-54 4.90672e-54 2.78444e-54 1.56302e-54 8.6795e-55 4.76814e-55 2.59123e-55 1.39249e-55 7.38667e-56 3.84064e-56 1.90128e-56 7.79657e-57 0 
0 4.9506e-73 1.59681e-72 4.63125e-72 1.31867e-71 3.72132e-71 1.04194e-70 2.89476e-70 7.97973e-70 2.18248e-69 5.92216e-69 1.59424e-68 4.25744e-68 1.12783e-67 2.9636e-67 7.72411e-67 1.99669e-66 5.11895e-66 1.30148e-65 3.28138e-65 8.20378e-65 2.03369e-64 4.99855e-64 1.21806e-63 2.94259e-63 7.04703e-63 1.6729e-62 3.93635e-62 9.18022e-62 2.12188e-61 4.86036e-61 1.10324e-60 2.48139e-60 5.52991e-60 1.22098e-59 2.67079e-59 5.78737e-59 1.24223e-58 2.64104e-58 5.56117e-58 1.1597e-57 2.3949e-57 4.89726e-57 9.91548e-57 1.98764e-56 3.94448e-56 7.74891e-56 1.5068e-55 2.90001e-55 5.52383e-55 1.04122e-54 1.94211e-54 3.58425e-54 6.54455e-54 1.18218e-53 2.1124e-53 3.73352e-53 6.52647e-53 1.12828e-52 1.92887e-52 3.26058e-52 5.44955e-52 9.00459e-52 1.47085e-51 2.37488e-51 3.79007e-51 5.97793e-51 9.3179e-51 1.43522e-50 2.18431e-50 3.28459e-50 4.87959e-50 7.16134e-50 1.03821e-49 1.48672e-49 2.10282e-49 2.93751e-49 4.05268e-49 5.52168e-49 7.42933e-49 9.87107e-49 1.29511e-48 1.6779e-48 2.14657e-48 2.71169e-48 3.38267e-48 4.16693e-48 5.06905e-48 6.08995e-48 7.2262e-48 8.46946e-48 9.80618e-48 1.12177e-47 1.26805e-47 1.41671e-47 1.56475e-47 1.709e-47 1.84632e-47 1.97378e-47 2.0888e-47 2.18933e-47 2.2739e-47 2.34175e-47 2.39285e-47 2.42781e-47 2.44788e-47 2.45481e-47 2.4507e-47 2.43789e-47 2.41877e-47 2.39566e-47 2.3707e-47 2.34573e-47 2.32228e-47 2.30147e-47 2.28409e-47 2.27058e-47 2.26108e-47 2.25548e-47 2.25351e-47 2.25475e-47 2.25874e-47 2.26497e-47 2.27293e-47 2.28215e-47 2.2922e-47 2.30268e-47 2.31322e-47 2.3235e-47 2.33322e-47 2.34208e-47 2.34981e-47 2.35614e-47 2.36084e-47 2.36367e-47 2.36445e-47 2.36302e-47 2.35928e-47 2.35316e-47 2.34469e-47 2.33393e-47 2.32099e-47 2.30604e-47 2.28929e-47 2.27096e-47 2.25127e-47 2.23048e-47 2.20881e-47 2.18647e-47 2.16369e-47 2.14067e-47 2.11762e-47 2.09476e-47 2.07234e-47 2.05061e-47 2.02987e-47 2.01043e-47 1.99262e-47 1.97675e-47 1.96314e-47 1.95202e-47 1.9436e-47 1.93798e-47 1.93516e-47 1.93505e-47 1.93745e-47 1.94207e-47 1.94856e-47 1.95649e-47 1.96546e-47 1.97504e-47 1.98485e-47 1.99456e-47 2.00394e-47 2.01279e-47 2.02101e-47 2.02855e-47 2.03539e-47 2.04152e-47 2.04692e-47 2.05152e-47 2.05518e-47 2.05766e-47 2.05864e-47 2.05767e-47 2.05423e-47 2.04769e-47 2.03737e-47 2.02255e-47 2.00248e-47 1.97648e-47 1.94389e-47 1.9042e-47 1.85699e-47 1.80203e-47 1.73929e-47 1.66895e-47 1.59141e-47 1.5073e-47 1.41747e-47 1.32296e-47 1.22498e-47 1.12485e-47 1.02399e-47 9.23796e-48 8.25664e-48 7.30879e-48 6.40594e-48 5.5578e-48 4.77203e-48 4.05406e-48 3.40704e-48 2.83198e-48 2.32786e-48 1.89199e-48 1.52027e-48 1.20759e-48 9.48134e-49 7.35769e-49 5.64294e-49 4.27701e-49 3.20351e-49 2.37112e-49 1.73424e-49 1.25341e-49 8.95168e-50 6.31747e-50 4.40571e-50 3.03621e-50 2.06777e-50 1.39168e-50 9.25682e-51 6.08534e-51 3.95393e-51 2.53931e-51 1.61201e-51 1.0116e-51 6.27573e-52 3.84911e-52 2.33413e-52 1.39954e-52 8.29791e-53 4.86528e-53 2.82118e-53 1.61796e-53 9.17803e-54 5.14999e-54 2.85869e-54 1.56981e-54 8.52765e-55 4.58079e-55 2.42897e-55 1.26244e-55 6.24745e-56 2.56126e-56 0 
0 1.43268e-72 4.62242e-72 1.34112e-71 3.82004e-71 1.07844e-70 3.02073e-70 8.39565e-70 2.3153e-69 6.33505e-69 1.71974e-68 4.63151e-68 1.2374e-67 3.27943e-67 8.62124e-67 2.24802e-66 5.81389e-66 1.49124e-65 3.79328e-65 9.56862e-65 2.39346e-64 5.93634e-64 1.45984e-63 3.55926e-63 8.60312e-63 2.06144e-62 4.89637e-62 1.15277e-61 2.69e-61 6.22116e-61 1.42585e-60 3.23844e-60 7.28827e-60 1.62523e-59 3.59066e-59 7.8592e-59 1.7041e-58 3.66013e-58 7.78664e-58 1.64069e-57 3.4237e-57 7.07498e-57 1.44772e-56 2.93318e-56 5.88382e-56 1.16845e-55 2.297e-55 4.46969e-55 8.60843e-55 1.64085e-54 3.0951e-54 5.77708e-54 1.06693e-53 1.94948e-53 3.52391e-53 6.3011e-53 1.11444e-52 1.94945e-52 3.37245e-52 5.76925e-52 9.75883e-52 1.63209e-51 2.69852e-51 4.41064e-51 7.12589e-51 1.1379e-50 1.7958e-50 2.80071e-50 4.31619e-50 6.5724e-50 9.88791e-50 1.46964e-49 2.15782e-49 3.12959e-49 4.48331e-49 6.34346e-49 8.8643e-49 1.2233e-48 1.66713e-48 2.24358e-48 2.98147e-48 3.91227e-48 5.06906e-48 6.4852e-48 8.19249e-48 1.02191e-47 1.2587e-47 1.53095e-47 1.83889e-47 2.18139e-47 2.55584e-47 2.95805e-47 3.38228e-47 3.82133e-47 4.26683e-47 4.70958e-47 5.13998e-47 5.54853e-47 5.92639e-47 6.26583e-47 6.56069e-47 6.80671e-47 7.00174e-47 7.14581e-47 7.24099e-47 7.29124e-47 7.30199e-47 7.27976e-47 7.23174e-47 7.16524e-47 7.08735e-47 7.00455e-47 6.92244e-47 6.84556e-47 6.77733e-47 6.72004e-47 6.67497e-47 6.64246e-47 6.62217e-47 6.61317e-47 6.61419e-47 6.62375e-47 6.64028e-47 6.66225e-47 6.6882e-47 6.71679e-47 6.74681e-47 6.77716e-47 6.80687e-47 6.835e-47 6.86071e-47 6.88317e-47 6.90161e-47 6.9153e-47 6.92358e-47 6.92588e-47 6.92175e-47 6.91088e-47 6.89312e-47 6.86849e-47 6.83717e-47 6.79953e-47 6.75604e-47 6.70728e-47 6.65392e-47 6.59664e-47 6.53613e-47 6.47306e-47 6.40807e-47 6.34178e-47 6.27479e-47 6.2077e-47 6.14117e-47 6.07588e-47 6.01262e-47 5.95222e-47 5.89561e-47 5.84373e-47 5.79752e-47 5.75786e-47 5.7255e-47 5.70099e-47 5.68465e-47 5.67649e-47 5.67623e-47 5.6833e-47 5.69686e-47 5.71584e-47 5.73906e-47 5.76528e-47 5.79328e-47 5.82195e-47 5.85036e-47 5.87778e-47 5.9037e-47 5.92782e-47 5.95002e-47 5.97026e-47 5.98855e-47 6.00484e-47 6.01895e-47 6.03049e-47 6.03881e-47 6.04297e-47 6.0417e-47 6.03345e-47 6.01641e-47 5.98856e-47 5.94776e-47 5.89183e-47 5.81866e-47 5.7263e-47 5.61313e-47 5.47786e-47 5.31973e-47 5.13854e-47 4.93469e-47 4.7093e-47 4.46413e-47 4.2016e-47 3.92473e-47 3.63706e-47 3.34249e-47 3.04517e-47 2.74932e-47 2.45907e-47 2.1783e-47 1.91048e-47 1.65857e-47 1.42491e-47 1.21118e-47 1.01838e-47 8.46875e-48 6.96409e-48 5.66219e-48 4.5512e-48 3.61612e-48 2.83986e-48 2.20421e-48 1.69076e-48 1.28164e-48 9.60033e-49 7.10607e-49 5.19743e-49 3.75629e-49 2.68251e-49 1.89295e-49 1.31995e-49 9.09509e-50 6.19296e-50 4.16721e-50 2.77119e-50 1.82129e-50 1.18304e-50 7.59551e-51 4.82025e-51 3.02387e-51 1.87527e-51 1.14973e-51 6.96933e-52 4.1771e-52 2.47559e-52 1.45088e-52 8.40932e-53 4.8206e-53 2.73327e-53 1.53297e-53 8.50525e-54 4.66828e-54 2.53469e-54 1.36088e-54 7.21257e-55 3.7469e-55 1.85347e-55 7.59634e-56 0 
0 4.06989e-72 1.31352e-71 3.81238e-71 1.08635e-70 3.06812e-70 8.59744e-70 2.39053e-69 6.59529e-69 1.80538e-68 4.90314e-68 1.32109e-67 3.53119e-67 9.36303e-67 2.46262e-66 6.42452e-66 1.66236e-65 4.26603e-65 1.08572e-64 2.74019e-64 6.85788e-64 1.70184e-63 4.18742e-63 1.02152e-62 2.47053e-62 5.92319e-62 1.40772e-61 3.31624e-61 7.74317e-61 1.79187e-60 4.10943e-60 9.33936e-60 2.10322e-59 4.69307e-59 1.03754e-58 2.27247e-58 4.93071e-58 1.05976e-57 2.25611e-57 4.75707e-57 9.93378e-57 2.05425e-56 4.20651e-56 8.52886e-56 1.71209e-55 3.40248e-55 6.69368e-55 1.30347e-54 2.51229e-54 4.79221e-54 9.04618e-54 1.68975e-53 3.123e-53 5.71054e-53 1.03301e-52 1.84848e-52 3.2717e-52 5.72722e-52 9.9149e-52 1.69735e-51 2.87312e-51 4.8084e-51 7.95564e-51 1.30119e-50 2.10359e-50 3.36124e-50 5.30788e-50 8.28306e-50 1.27725e-49 1.94598e-49 2.92919e-49 4.35586e-49 6.39858e-49 9.28429e-49 1.33058e-48 1.88336e-48 2.63271e-48 3.63433e-48 4.95428e-48 6.66886e-48 8.86388e-48 1.16328e-47 1.50739e-47 1.9286e-47 2.43632e-47 3.03884e-47 3.74258e-47 4.55134e-47 5.46557e-47 6.48172e-47 7.59172e-47 8.78281e-47 1.00376e-46 1.13343e-46 1.26478e-46 1.39505e-46 1.52137e-46 1.64091e-46 1.75103e-46 1.84946e-46 1.9344e-46 2.00461e-46 2.05951e-46 2.09915e-46 2.12422e-46 2.13594e-46 2.13597e-46 2.12632e-46 2.10915e-46 2.08668e-46 2.06102e-46 2.03412e-46 2.00764e-46 1.98292e-46 1.96098e-46 1.94248e-46 1.92777e-46 1.91694e-46 1.90987e-46 1.90627e-46 1.90573e-46 1.90782e-46 1.91204e-46 1.91794e-46 1.92507e-46 1.93303e-46 1.94145e-46 1.95002e-46 1.95844e-46 1.96644e-46 1.97376e-46 1.98016e-46 1.98543e-46 1.98935e-46 1.99172e-46 1.99239e-46 1.99122e-46 1.98813e-46 1.98306e-46 1.97603e-46 1.96709e-46 1.95633e-46 1.94391e-46 1.92998e-46 1.91473e-46 1.89837e-46 1.88108e-46 1.86306e-46 1.8445e-46 1.82556e-46 1.80642e-46 1.78725e-46 1.76823e-46 1.74958e-46 1.73149e-46 1.71423e-46 1.69804e-46 1.6832e-46 1.66999e-46 1.65865e-46 1.6494e-46 1.6424e-46 1.63773e-46 1.63541e-46 1.63536e-46 1.63741e-46 1.64131e-46 1.64677e-46 1.65344e-46 1.66097e-46 1.669e-46 1.67723e-46 1.68539e-46 1.69327e-46 1.70072e-46 1.70768e-46 1.7141e-46 1.71999e-46 1.72535e-46 1.73018e-46 1.73444e-46 1.73802e-46 1.74074e-46 1.74234e-46 1.74247e-46 1.74067e-46 1.73643e-46 1.72916e-46 1.71825e-46 1.70305e-46 1.68294e-46 1.65734e-46 1.62576e-46 1.5878e-46 1.54321e-46 1.4919e-46 1.43396e-46 1.36967e-46 1.29952e-46 1.2242e-46 1.14455e-46 1.06159e-46 9.76457e-47 8.90347e-47 8.04499e-47 7.20128e-47 6.38378e-47 5.60284e-47 4.86727e-47 4.18414e-47 3.55856e-47 2.99367e-47 2.49069e-47 2.04904e-47 1.66662e-47 1.34006e-47 1.06504e-47 8.36616e-48 6.49485e-48 4.98275e-48 3.77749e-48 2.82981e-48 2.09468e-48 1.53206e-48 1.10721e-48 7.9065e-49 5.57875e-49 3.88953e-49 2.67963e-49 1.82424e-49 1.22725e-49 8.15918e-50 5.36092e-50 3.48124e-50 2.23435e-50 1.41748e-50 8.88901e-51 5.51048e-51 3.37715e-51 2.04628e-51 1.22593e-51 7.26231e-52 4.2543e-52 2.46465e-52 1.41217e-52 8.00308e-53 4.48635e-53 2.48785e-53 1.36481e-53 7.40652e-54 3.9745e-54 2.10536e-54 1.09318e-54 5.40522e-55 2.21459e-55 0 
0 1.14583e-71 3.69919e-71 1.07408e-70 3.06184e-70 8.65104e-70 2.42521e-69 6.74627e-69 1.86207e-68 5.09948e-68 1.38558e-67 3.73503e-67 9.98825e-67 2.6497e-66 6.97256e-66 1.81993e-65 4.71153e-65 1.20973e-64 3.08045e-64 7.77879e-64 1.94787e-63 4.83653e-63 1.19071e-62 2.90642e-62 7.03329e-62 1.68727e-61 4.01245e-61 9.45817e-61 2.20979e-60 5.11699e-60 1.17428e-59 2.67048e-59 6.01792e-59 1.34372e-58 2.97271e-58 6.51548e-58 1.41468e-57 3.04273e-57 6.48226e-57 1.36779e-56 2.85831e-56 5.91515e-56 1.21215e-55 2.45952e-55 4.94096e-55 9.82672e-55 1.93467e-54 3.77029e-54 7.27237e-54 1.38828e-53 2.62264e-53 4.90264e-53 9.06804e-53 1.65941e-52 3.00408e-52 5.37963e-52 9.52884e-52 1.66931e-51 2.89204e-51 4.95456e-51 8.39274e-51 1.4056e-50 2.32724e-50 3.80896e-50 6.16196e-50 9.85242e-50 1.55683e-49 2.43098e-49 3.7508e-49 5.7179e-49 8.61163e-49 1.28126e-48 1.88306e-48 2.73357e-48 3.91931e-48 5.54978e-48 7.76071e-48 1.07168e-47 1.46132e-47 1.96753e-47 2.61566e-47 3.43327e-47 4.44935e-47 5.69296e-47 7.19173e-47 8.96985e-47 1.10459e-46 1.34308e-46 1.6125e-46 1.91175e-46 2.23835e-46 2.58845e-46 2.95681e-46 3.33692e-46 3.72127e-46 4.10163e-46 4.46948e-46 4.81646e-46 5.1348e-46 5.41783e-46 5.66031e-46 5.85873e-46 6.01149e-46 6.11893e-46 6.18321e-46 6.20814e-46 6.19881e-46 6.16123e-46 6.10194e-46 6.02754e-46 5.94437e-46 5.85819e-46 5.7739e-46 5.69547e-46 5.62581e-46 5.56684e-46 5.51957e-46 5.48419e-46 5.46027e-46 5.44691e-46 5.44287e-46 5.44679e-46 5.45723e-46 5.47276e-46 5.49208e-46 5.51398e-46 5.53739e-46 5.56134e-46 5.58497e-46 5.60747e-46 5.62812e-46 5.64623e-46 5.66114e-46 5.67224e-46 5.679e-46 5.68092e-46 5.67765e-46 5.66891e-46 5.65459e-46 5.63469e-46 5.60938e-46 5.57894e-46 5.54377e-46 5.50433e-46 5.46116e-46 5.41483e-46 5.36588e-46 5.31487e-46 5.2623e-46 5.20868e-46 5.15449e-46 5.10021e-46 5.04637e-46 4.99352e-46 4.94229e-46 4.89337e-46 4.8475e-46 4.80546e-46 4.76801e-46 4.73588e-46 4.70967e-46 4.68984e-46 4.67666e-46 4.67013e-46 4.67004e-46 4.67591e-46 4.68705e-46 4.7026e-46 4.7216e-46 4.74302e-46 4.76589e-46 4.78931e-46 4.81252e-46 4.83495e-46 4.85622e-46 4.8761e-46 4.89452e-46 4.91151e-46 4.92711e-46 4.94132e-46 4.95406e-46 4.96504e-46 4.97379e-46 4.97958e-46 4.9814e-46 4.978e-46 4.9679e-46 4.94943e-46 4.9208e-46 4.88015e-46 4.82565e-46 4.75562e-46 4.66853e-46 4.5632e-46 4.4388e-46 4.29497e-46 4.1319e-46 3.9503e-46 3.75148e-46 3.53732e-46 3.31025e-46 3.07314e-46 2.82921e-46 2.58196e-46 2.33496e-46 2.09176e-46 1.85572e-46 1.62988e-46 1.41686e-46 1.21877e-46 1.03715e-46 8.72984e-47 7.26662e-47 5.98071e-47 4.8664e-47 3.9142e-47 3.11182e-47 2.44502e-47 1.89851e-47 1.45674e-47 1.1045e-47 8.27472e-48 6.12532e-48 4.4801e-48 3.23763e-48 2.31178e-48 1.631e-48 1.13698e-48 7.83169e-49 5.33059e-49 3.58531e-49 2.38303e-49 1.56531e-49 1.01616e-49 6.51983e-50 4.13475e-50 2.59194e-50 1.60617e-50 9.83956e-51 5.95945e-51 3.56873e-51 2.11313e-51 1.23731e-51 7.16466e-52 4.10312e-52 2.32415e-52 1.3022e-52 7.21744e-53 3.95731e-53 2.1464e-53 1.15119e-53 6.09478e-54 3.16302e-54 1.56324e-54 6.4027e-55 0 
0 3.20055e-71 1.0336e-70 3.00227e-70 8.56207e-70 2.42019e-69 6.78765e-69 1.88897e-68 5.2162e-68 1.42917e-67 3.88503e-67 1.04777e-66 2.80332e-66 7.44038e-66 1.95889e-65 5.11562e-65 1.32505e-64 3.40402e-64 8.67269e-64 2.19125e-63 5.49017e-63 1.36398e-62 3.35998e-62 8.20624e-62 1.98704e-61 4.76979e-61 1.135e-60 2.67711e-60 6.25878e-60 1.45023e-59 3.33027e-59 7.57863e-59 1.709e-58 3.81861e-58 8.4538e-58 1.85418e-57 4.0288e-57 8.6715e-57 1.84874e-56 3.90382e-56 8.16403e-56 1.69079e-55 3.46745e-55 7.04102e-55 1.41557e-54 2.81752e-54 5.55144e-54 1.08271e-53 2.09005e-53 3.99301e-53 7.5493e-53 1.41235e-52 2.61438e-52 4.78796e-52 8.67464e-52 1.55465e-51 2.75587e-51 4.8316e-51 8.37706e-51 1.43623e-50 2.4347e-50 4.0806e-50 6.76112e-50 1.10737e-49 1.7927e-49 2.8683e-49 4.53535e-49 7.08643e-49 1.09405e-48 1.66882e-48 2.51481e-48 3.74362e-48 5.50477e-48 7.99493e-48 1.1468e-47 1.62456e-47 2.27261e-47 3.13932e-47 4.28198e-47 5.76677e-47 7.66802e-47 1.00666e-46 1.30473e-46 1.66952e-46 2.10908e-46 2.63043e-46 3.23893e-46 3.93759e-46 4.72644e-46 5.60196e-46 6.55669e-46 7.57903e-46 8.65331e-46 9.76019e-46 1.08774e-45 1.19805e-45 1.30444e-45 1.40446e-45 1.49582e-45 1.5766e-45 1.64527e-45 1.70084e-45 1.74289e-45 1.77156e-45 1.78754e-45 1.792e-45 1.78648e-45 1.77278e-45 1.75285e-45 1.72866e-45 1.70209e-45 1.67483e-45 1.64831e-45 1.62371e-45 1.60185e-45 1.5833e-45 1.56831e-45 1.55694e-45 1.54904e-45 1.54433e-45 1.54243e-45 1.54294e-45 1.54541e-45 1.54942e-45 1.55459e-45 1.56055e-45 1.56699e-45 1.57362e-45 1.58019e-45 1.58647e-45 1.59225e-45 1.59732e-45 1.60151e-45 1.60463e-45 1.60654e-45 1.60709e-45 1.60618e-45 1.60373e-45 1.59971e-45 1.59413e-45 1.58703e-45 1.57848e-45 1.5686e-45 1.55752e-45 1.5454e-45 1.53238e-45 1.51863e-45 1.50431e-45 1.48954e-45 1.47448e-45 1.45926e-45 1.44402e-45 1.42889e-45 1.41404e-45 1.39965e-45 1.3859e-45 1.373e-45 1.36118e-45 1.35065e-45 1.34162e-45 1.33425e-45 1.32869e-45 1.32499e-45 1.32316e-45 1.32316e-45 1.32482e-45 1.32798e-45 1.33238e-45 1.33774e-45 1.34379e-45 1.35025e-45 1.35686e-45 1.36341e-45 1.36975e-45 1.37577e-45 1.38141e-45 1.38666e-45 1.39152e-45 1.39603e-45 1.40018e-45 1.40396e-45 1.4073e-45 1.41007e-45 1.41207e-45 1.41302e-45 1.41257e-45 1.41031e-45 1.40575e-45 1.3984e-45 1.3877e-45 1.37314e-45 1.35421e-45 1.33046e-45 1.30153e-45 1.26716e-45 1.22722e-45 1.18174e-45 1.13088e-45 1.075e-45 1.01461e-45 9.50389e-46 8.83145e-46 8.13796e-46 7.43341e-46 6.7281e-46 6.0323e-46 5.35579e-46 4.70747e-46 4.09506e-46 3.52479e-46 3.00133e-46 2.52762e-46 2.105e-46 1.73327e-46 1.41089e-46 1.13521e-46 9.0277e-47 7.09501e-47 5.51027e-47 4.22874e-47 3.20661e-47 2.40251e-47 1.77851e-47 1.3008e-47 9.40009e-48 6.71148e-48 4.73451e-48 3.29998e-48 2.27268e-48 1.54656e-48 1.03996e-48 6.91042e-49 4.53785e-49 2.94493e-49 1.88888e-49 1.19746e-49 7.50363e-50 4.64798e-50 2.84621e-50 1.7231e-50 1.03138e-50 6.10424e-51 3.57251e-51 2.06766e-51 1.18353e-51 6.70047e-52 3.75224e-52 2.07857e-52 1.13906e-52 6.17478e-53 3.30992e-53 1.75143e-53 9.08466e-54 4.48777e-54 1.83748e-54 0 
0 8.87029e-71 2.86554e-70 8.3268e-70 2.3757e-69 6.71815e-69 1.88501e-68 5.24827e-68 1.44992e-67 3.97447e-67 1.08093e-66 2.91662e-66 7.80736e-66 2.07323e-65 5.46121e-65 1.42694e-64 3.69805e-64 9.50539e-64 2.42311e-63 6.12574e-63 1.53568e-62 3.8175e-62 9.4095e-62 2.29952e-61 5.57146e-61 1.33824e-60 3.18644e-60 7.52072e-60 1.75941e-59 4.07948e-59 9.37437e-59 2.13477e-58 4.81733e-58 1.07715e-57 2.38635e-57 5.23781e-57 1.13892e-56 2.4532e-56 5.23409e-56 1.10608e-55 2.3149e-55 4.79793e-55 9.84723e-55 2.00116e-54 4.02646e-54 8.02056e-54 1.58158e-53 3.0871e-53 5.96411e-53 1.14036e-52 2.15775e-52 4.04008e-52 7.48462e-52 1.37184e-51 2.48747e-51 4.46159e-51 7.91523e-51 1.38881e-50 2.40982e-50 4.1348e-50 7.01475e-50 1.17658e-49 1.95092e-49 3.19764e-49 5.18031e-49 8.29426e-49 1.31238e-48 2.05192e-48 3.16992e-48 4.83821e-48 7.29516e-48 1.08659e-47 1.59861e-47 2.32292e-47 3.33357e-47 4.72434e-47 6.61152e-47 9.13619e-47 1.24655e-46 1.67925e-46 2.23338e-46 2.9325e-46 3.80129e-46 4.86445e-46 6.14531e-46 7.66412e-46 9.43618e-46 1.14699e-45 1.37647e-45 1.63099e-45 1.90828e-45 2.20489e-45 2.51617e-45 2.83639e-45 3.15899e-45 3.4768e-45 3.78245e-45 4.06877e-45 4.32915e-45 4.55797e-45 4.7509e-45 4.90515e-45 5.0196e-45 5.09482e-45 5.13298e-45 5.13761e-45 5.11335e-45 5.0656e-45 5.00012e-45 4.92274e-45 4.83896e-45 4.75374e-45 4.67128e-45 4.59493e-45 4.52712e-45 4.46939e-45 4.4225e-45 4.38651e-45 4.36095e-45 4.34494e-45 4.33737e-45 4.33698e-45 4.34248e-45 4.35262e-45 4.36623e-45 4.38227e-45 4.39981e-45 4.418e-45 4.43613e-45 4.45351e-45 4.46954e-45 4.48365e-45 4.49531e-45 4.50402e-45 4.50935e-45 4.5109e-45 4.50839e-45 4.5016e-45 4.49043e-45 4.47488e-45 4.45509e-45 4.43128e-45 4.40375e-45 4.37288e-45 4.3391e-45 4.30283e-45 4.26453e-45 4.2246e-45 4.18347e-45 4.14151e-45 4.0991e-45 4.05661e-45 4.01445e-45 3.97306e-45 3.93292e-45 3.89458e-45 3.85862e-45 3.82566e-45 3.79629e-45 3.7711e-45 3.75056e-45 3.73504e-45 3.72475e-45 3.7197e-45 3.71972e-45 3.72444e-45 3.73331e-45 3.74564e-45 3.76069e-45 3.77764e-45 3.79572e-45 3.81423e-45 3.8326e-45 3.85037e-45 3.86727e-45 3.88315e-45 3.89798e-45 3.91181e-45 3.92473e-45 3.93677e-45 3.9479e-45 3.95796e-45 3.9666e-45 3.97328e-45 3.97724e-45 3.97751e-45 3.97291e-45 3.96211e-45 3.94366e-45 3.91602e-45 3.87767e-45 3.82715e-45 3.76313e-45 3.68452e-45 3.59051e-45 3.48065e-45 3.3549e-45 3.2137e-45 3.05795e-45 2.88905e-45 2.70886e-45 2.51965e-45 2.324e-45 2.12475e-45 1.92484e-45 1.72724e-45 1.53476e-45 1.35e-45 1.1752e-45 1.01221e-45 8.62406e-46 7.26693e-46 6.05492e-46 4.98789e-46 4.06177e-46 3.26928e-46 2.60065e-46 2.0444e-46 1.58809e-46 1.21894e-46 9.24414e-47 6.92654e-47 5.12767e-47 3.75036e-47 2.71002e-47 1.93474e-47 1.36467e-47 9.51042e-48 6.54857e-48 4.45536e-48 2.99521e-48 1.98975e-48 1.30621e-48 8.47423e-49 5.43349e-49 3.44331e-49 2.15684e-49 1.33547e-49 8.17433e-50 4.94654e-50 2.95946e-50 1.75072e-50 1.02411e-50 5.92425e-51 3.3893e-51 1.91782e-51 1.0734e-51 5.94292e-52 3.25494e-52 1.76349e-52 9.44771e-53 4.99643e-53 2.59026e-53 1.27897e-53 5.23482e-54 0 
0 2.43918e-70 7.88238e-70 2.29143e-69 6.54042e-69 1.85036e-68 5.19417e-68 1.44684e-67 3.99902e-67 1.09672e-66 2.9842e-66 8.05615e-66 2.15761e-65 5.73246e-65 1.51082e-64 3.94967e-64 1.02416e-63 2.63395e-63 6.71827e-63 1.6994e-62 4.26279e-62 1.06031e-61 2.61508e-61 6.39479e-61 1.55035e-60 3.72627e-60 8.87831e-60 2.09687e-59 4.90878e-59 1.13896e-58 2.61906e-58 5.96846e-58 1.3478e-57 3.01587e-57 6.68634e-57 1.46868e-56 3.19593e-56 6.8892e-56 1.471e-55 3.11095e-55 6.51604e-55 1.3516e-54 2.77625e-54 5.64647e-54 1.13703e-53 2.26678e-53 4.47358e-53 8.73925e-53 1.68978e-52 3.23361e-52 6.12367e-52 1.14753e-51 2.12768e-51 3.90306e-51 7.08303e-51 1.27149e-50 2.25758e-50 3.96439e-50 6.88449e-50 1.1822e-49 2.00721e-49 3.3693e-49 5.59102e-49 9.17086e-49 1.48681e-48 2.38227e-48 3.77203e-48 5.90163e-48 9.12314e-48 1.39333e-47 2.10217e-47 3.13291e-47 4.61171e-47 6.70466e-47 9.62635e-47 1.36485e-46 1.91083e-46 2.64147e-46 3.60522e-46 4.85801e-46 6.46261e-46 8.4872e-46 1.10031e-45 1.40817e-45 1.77901e-45 2.21863e-45 2.73137e-45 3.31954e-45 3.98285e-45 4.71797e-45 5.51816e-45 6.37316e-45 7.26925e-45 8.18965e-45 9.11507e-45 1.00246e-44 1.08968e-44 1.17109e-44 1.24477e-44 1.30911e-44 1.36287e-44 1.40529e-44 1.43608e-44 1.45544e-44 1.46404e-44 1.46295e-44 1.45356e-44 1.43747e-44 1.41637e-44 1.39197e-44 1.36588e-44 1.33954e-44 1.31417e-44 1.29073e-44 1.26992e-44 1.25216e-44 1.23766e-44 1.22642e-44 1.21829e-44 1.21301e-44 1.21024e-44 1.2096e-44 1.2107e-44 1.2132e-44 1.21673e-44 1.22099e-44 1.22572e-44 1.23067e-44 1.23562e-44 1.24039e-44 1.2448e-44 1.24869e-44 1.25191e-44 1.25432e-44 1.2558e-44 1.25624e-44 1.25555e-44 1.25368e-44 1.2506e-44 1.2463e-44 1.24084e-44 1.23425e-44 1.22664e-44 1.21811e-44 1.20877e-44 1.19875e-44 1.18816e-44 1.17712e-44 1.16575e-44 1.15415e-44 1.14243e-44 1.13068e-44 1.11903e-44 1.10758e-44 1.09648e-44 1.08588e-44 1.07593e-44 1.0668e-44 1.05868e-44 1.05171e-44 1.04603e-44 1.04174e-44 1.0389e-44 1.03751e-44 1.03753e-44 1.03885e-44 1.04132e-44 1.04476e-44 1.04894e-44 1.05365e-44 1.05868e-44 1.06382e-44 1.06893e-44 1.07387e-44 1.07858e-44 1.08302e-44 1.08718e-44 1.09109e-44 1.09476e-44 1.09823e-44 1.10148e-44 1.10448e-44 1.10715e-44 1.10932e-44 1.1108e-44 1.11132e-44 1.11055e-44 1.10813e-44 1.10363e-44 1.09664e-44 1.0867e-44 1.0734e-44 1.05635e-44 1.03523e-44 1.00977e-44 9.79842e-45 9.45397e-45 9.06537e-45 8.63494e-45 8.16642e-45 7.6649e-45 7.13663e-45 6.5889e-45 6.02967e-45 5.46733e-45 4.91029e-45 4.36667e-45 3.84394e-45 3.34863e-45 2.88613e-45 2.46051e-45 2.07447e-45 1.72936e-45 1.42525e-45 1.16108e-45 9.34873e-46 7.43896e-46 5.84933e-46 4.54467e-46 3.48881e-46 2.64614e-46 1.98286e-46 1.46794e-46 1.07363e-46 7.75771e-47 5.53791e-47 3.9057e-47 2.72145e-47 1.87355e-47 1.2744e-47 8.56532e-48 5.68844e-48 3.73317e-48 2.42115e-48 1.55184e-48 9.83061e-49 6.15532e-49 3.80965e-49 2.33085e-49 1.40983e-49 8.43088e-50 4.98502e-50 2.9146e-50 1.68517e-50 9.63589e-51 5.44951e-51 3.04841e-51 1.68683e-51 9.23357e-52 4.9998e-52 2.67706e-52 1.41496e-52 7.33145e-53 3.61822e-53 1.48042e-53 0 
0 6.6546e-70 2.15121e-69 6.25622e-69 1.7865e-68 5.0565e-68 1.42007e-67 3.95748e-67 1.09436e-66 3.00273e-66 8.17457e-66 2.20793e-65 5.91637e-65 1.57273e-64 4.14724e-64 1.0848e-63 2.81448e-63 7.24245e-63 1.84837e-62 4.67824e-62 1.1742e-61 2.92246e-61 7.21227e-61 1.76477e-60 4.28129e-60 1.02968e-59 2.45499e-59 5.80212e-59 1.35921e-58 3.15592e-58 7.26228e-58 1.65616e-57 3.7427e-57 8.38095e-57 1.8595e-56 4.08758e-56 8.90168e-56 1.92036e-55 4.10364e-55 8.68558e-55 1.82071e-54 3.77972e-54 7.77009e-54 1.58163e-53 3.1876e-53 6.36015e-53 1.25626e-52 2.45623e-52 4.75331e-52 9.10388e-52 1.72553e-51 3.2363e-51 6.00572e-51 1.10265e-50 2.00273e-50 3.59819e-50 6.39417e-50 1.12378e-49 1.95317e-49 3.35673e-49 5.70391e-49 9.58226e-49 1.59134e-48 2.61227e-48 4.23831e-48 6.79593e-48 1.07683e-47 1.68596e-47 2.60802e-47 3.9857e-47 6.01711e-47 8.97276e-47 1.32155e-46 1.92234e-46 2.76141e-46 3.91701e-46 5.48623e-46 7.58687e-46 1.03585e-45 1.3962e-45 1.85783e-45 2.44033e-45 3.16421e-45 4.04991e-45 5.11663e-45 6.38089e-45 7.85492e-45 9.54501e-45 1.14499e-44 1.35594e-44 1.58536e-44 1.83023e-44 2.08652e-44 2.34933e-44 2.61307e-44 2.87165e-44 3.11887e-44 3.34873e-44 3.55574e-44 3.7353e-44 3.88393e-44 3.99949e-44 4.08126e-44 4.12996e-44 4.14766e-44 4.13755e-44 4.10373e-44 4.0509e-44 3.98405e-44 3.90814e-44 3.82784e-44 3.74733e-44 3.67009e-44 3.59886e-44 3.53562e-44 3.48158e-44 3.43725e-44 3.40262e-44 3.3772e-44 3.36018e-44 3.35055e-44 3.34721e-44 3.34904e-44 3.35496e-44 3.36396e-44 3.37516e-44 3.38776e-44 3.40108e-44 3.4145e-44 3.42747e-44 3.4395e-44 3.45014e-44 3.45897e-44 3.46558e-44 3.46965e-44 3.47087e-44 3.469e-44 3.46389e-44 3.45545e-44 3.44369e-44 3.42871e-44 3.41066e-44 3.3898e-44 3.3664e-44 3.34079e-44 3.3133e-44 3.28426e-44 3.25401e-44 3.22283e-44 3.19103e-44 3.15888e-44 3.12667e-44 3.0947e-44 3.0633e-44 3.03284e-44 3.00374e-44 2.97643e-44 2.95139e-44 2.92909e-44 2.90996e-44 2.89437e-44 2.88261e-44 2.87483e-44 2.87105e-44 2.87114e-44 2.87482e-44 2.88165e-44 2.89114e-44 2.90268e-44 2.91567e-44 2.92953e-44 2.94371e-44 2.9578e-44 2.97145e-44 2.98447e-44 2.99678e-44 3.00837e-44 3.01931e-44 3.0297e-44 3.03961e-44 3.04905e-44 3.05792e-44 3.06601e-44 3.07292e-44 3.07811e-44 3.08084e-44 3.08022e-44 3.07522e-44 3.06468e-44 3.0474e-44 3.02212e-44 2.98763e-44 2.94281e-44 2.88669e-44 2.8185e-44 2.73775e-44 2.64427e-44 2.53828e-44 2.42034e-44 2.29145e-44 2.15299e-44 2.00667e-44 1.85451e-44 1.69875e-44 1.54175e-44 1.38589e-44 1.23349e-44 1.08668e-44 9.47352e-45 8.1706e-45 6.97001e-45 5.8798e-45 4.90414e-45 4.0436e-45 3.29547e-45 2.65435e-45 2.11276e-45 1.6617e-45 1.29133e-45 9.91471e-46 7.52077e-46 5.63601e-46 4.17252e-46 3.05168e-46 2.20492e-46 1.57386e-46 1.10985e-46 7.73206e-47 5.322e-47 3.61925e-47 2.43189e-47 1.61462e-47 1.0593e-47 6.86778e-48 4.40033e-48 2.78646e-48 1.744e-48 1.07894e-48 6.5983e-49 3.98918e-49 2.38442e-49 1.40916e-49 8.23479e-50 4.75871e-50 2.7196e-50 1.53721e-50 8.59425e-51 4.75291e-51 2.60021e-51 1.40715e-51 7.52993e-52 3.97764e-52 2.05982e-52 1.01606e-52 4.15581e-53 0 