# vtk DataFile Version 3.0
Gray-Scott Simulation Output
ASCII
DATASET STRUCTURED_POINTS
DIMENSIONS 256 256 1
SPACING 1.0 1.0 1.0
ORIGIN 0 0 0
POINT_DATA 65536
SCALARS u double
LOOKUP_TABLE default
0 0 0 0 0 0 0 0 0 0 0 0 0 0 0 0 0 0 0 0 0 0 0 0 0 0 0 0 0 0 0 0 0 0 0 0 0 0 0 0 0 0 0 0 0 0 0 0 0 0 0 0 0 0 0 0 0 0 0 0 0 0 0 0 0 0 0 0 0 0 0 0 0 0 0 0 0 0 0 0 0 0 0 0 0 0 0 0 0 0 0 0 0 0 0 0 0 0 0 0 0 0 0 0 0 0 0 0 0 0 0 0 0 0 0 0 0 0 0 0 0 0 0 0 0 0 0 0 0 0 0 0 0 0 0 0 0 0 0 0 0 0 0 0 0 0 0 0 0 0 0 0 0 0 0 0 0 0 0 0 0 0 0 0 0 0 0 0 0 0 0 0 0 0 0 0 0 0 0 0 0 0 0 0 0 0 0 0 0 0 0 0 0 0 0 0 0 0 0 0 0 0 0 0 0 0 0 0 0 0 0 0 0 0 0 0 0 0 0 0 0 0 0 0 0 0 0 0 0 0 0 0 0 0 0 0 0 0 0 0 0 0 0 0 0 0 0 0 0 0 0 0 0 0 0 0 
0 1.74645e-76 6.10977e-76 1.95118e-75 6.13455e-75 1.91171e-74 5.90848e-74 1.81111e-73 5.50567e-73 1.65976e-72 4.96167e-72 1.47073e-71 4.32247e-71 1.25951e-70 3.63847e-70 1.04196e-69 2.95787e-69 8.32285e-69 2.32115e-68 6.4157e-68 1.75739e-67 4.77033e-67 1.28308e-66 3.41946e-66 9.02879e-66 2.36178e-65 6.12011e-65 1.57093e-64 3.99395e-64 1.00569e-63 2.50791e-63 6.19316e-63 1.51438e-62 3.66644e-62 8.78841e-62 2.08544e-61 4.89863e-61 1.13895e-60 2.62093e-60 5.96883e-60 1.34516e-59 2.99965e-59 6.61827e-59 1.44464e-58 3.11946e-58 6.66294e-58 1.40761e-57 2.94095e-57 6.07641e-57 1.24143e-56 2.50767e-56 5.00791e-56 9.88643e-56 1.92921e-55 3.7208e-55 7.09205e-55 1.33581e-54 2.48606e-54 4.57127e-54 8.30382e-54 1.49003e-53 2.64087e-53 4.62268e-53 7.99092e-53 1.364e-52 2.29885e-52 3.8251e-52 6.28313e-52 1.01876e-51 1.63039e-51 2.57514e-51 4.0139e-51 6.17383e-51 9.36984e-51 1.40304e-50 2.07271e-50 3.02073e-50 4.34276e-50 6.15855e-50 8.61453e-50 1.18853e-49 1.61734e-49 2.17068e-49 2.87337e-49 3.75138e-49 4.83058e-49 6.13522e-49 7.68603e-49 9.49825e-49 1.15795e-48 1.3928e-48 1.65308e-48 1.9363e-48 2.23878e-48 2.55567e-48 2.88116e-48 3.20874e-48 3.53151e-48 3.8426e-48 4.13553e-48 4.40468e-48 4.64552e-48 4.85497e-48 5.03147e-48 5.17502e-48 5.28711e-48 5.37051e-48 5.42898e-48 5.46693e-48 5.4891e-48 5.5002e-48 5.50461e-48 5.50616e-48 5.50797e-48 5.51239e-48 5.52097e-48 5.53456e-48 5.55338e-48 5.57718e-48 5.60536e-48 5.63715e-48 5.67166e-48 5.70805e-48 5.7455e-48 5.78332e-48 5.82091e-48 5.85771e-48 5.89325e-48 5.92701e-48 5.95848e-48 5.98708e-48 6.01217e-48 6.03304e-48 6.04898e-48 6.05925e-48 6.06322e-48 6.06031e-48 6.05015e-48 6.03254e-48 6.0075e-48 5.97527e-48 5.93631e-48 5.89124e-48 5.84081e-48 5.78583e-48 5.72713e-48 5.66548e-48 5.6016e-48 5.53609e-48 5.46949e-48 5.40228e-48 5.33489e-48 5.26782e-48 5.20163e-48 5.13702e-48 5.07483e-48 5.01605e-48 4.96177e-48 4.91315e-48 4.87134e-48 4.83734e-48 4.81196e-48 4.79569e-48 4.78866e-48 4.79056e-48 4.80072e-48 4.81807e-48 4.84127e-48 4.86876e-48 4.89895e-48 4.93027e-48 4.96135e-48 4.99105e-48 5.01852e-48 5.04325e-48 5.06501e-48 5.08381e-48 5.09977e-48 5.11308e-48 5.1238e-48 5.13184e-48 5.1368e-48 5.13795e-48 5.13421e-48 5.12412e-48 5.10593e-48 5.07764e-48 5.03714e-48 4.9823e-48 4.9111e-48 4.82177e-48 4.7129e-48 4.58355e-48 4.43332e-48 4.26245e-48 4.0718e-48 3.86288e-48 3.63781e-48 3.39929e-48 3.15044e-48 2.8948e-48 2.63608e-48 2.37809e-48 2.12459e-48 1.87909e-48 1.64477e-48 1.42433e-48 1.21995e-48 1.0332e-48 8.65009e-49 7.15743e-49 5.85195e-49 4.72682e-49 3.77127e-49 2.9716e-49 2.31217e-49 1.77634e-49 1.3473e-49 1.00879e-49 7.45607e-50 5.43955e-50 3.91692e-50 2.78384e-50 1.95278e-50 1.35199e-50 9.23848e-51 6.23082e-51 4.14779e-51 2.72537e-51 1.76763e-51 1.13169e-51 7.15251e-52 4.46279e-52 2.74913e-52 1.67207e-52 1.00418e-52 5.95516e-53 3.48766e-53 2.01727e-53 1.15244e-53 6.50321e-54 3.62518e-54 1.99644e-54 1.08629e-54 5.8403e-55 3.10283e-55 1.62911e-55 8.45378e-56 4.33599e-56 2.19824e-56 1.10139e-56 5.44775e-57 2.64657e-57 1.23258e-57 4.83271e-58 0 
0 6.10033e-76 2.13454e-75 6.81831e-75 2.14421e-74 6.68366e-74 2.06623e-73 6.33519e-73 1.92637e-72 5.80888e-72 1.73698e-71 5.15016e-71 1.51407e-70 4.4131e-70 1.27523e-69 3.65306e-69 1.03734e-68 2.91978e-68 8.14558e-68 2.2522e-67 6.17133e-67 1.67574e-66 4.50885e-66 1.20206e-65 3.17508e-65 8.30855e-65 2.15381e-64 5.53059e-64 1.40665e-63 3.5434e-63 8.8398e-63 2.18384e-62 5.34222e-62 1.29394e-61 3.10289e-61 7.36619e-61 1.73105e-60 4.02655e-60 9.26998e-60 2.11209e-59 4.76207e-59 1.06242e-58 2.34517e-58 5.1215e-58 1.10643e-57 2.36441e-57 4.99747e-57 1.04465e-56 2.15946e-56 4.41404e-56 8.92078e-56 1.78241e-55 3.52053e-55 6.87334e-55 1.32631e-54 2.52929e-54 4.76638e-54 8.87513e-54 1.63274e-53 2.96738e-53 5.32725e-53 9.44639e-53 1.65433e-52 2.86108e-52 4.88597e-52 8.23843e-52 1.37142e-51 2.25368e-51 3.65571e-51 5.85288e-51 9.24807e-51 1.44205e-50 2.21883e-50 3.36861e-50 5.04577e-50 7.45635e-50 1.08698e-49 1.56309e-49 2.21714e-49 3.10194e-49 4.2804e-49 5.82552e-49 7.81946e-49 1.03515e-48 1.35151e-48 1.74032e-48 2.21027e-48 2.76877e-48 3.42121e-48 4.17023e-48 5.01502e-48 5.9508e-48 6.96842e-48 8.05438e-48 9.19108e-48 1.03574e-47 1.15298e-47 1.26833e-47 1.37932e-47 1.48361e-47 1.57919e-47 1.66446e-47 1.73833e-47 1.80025e-47 1.85027e-47 1.88896e-47 1.91733e-47 1.93678e-47 1.94892e-47 1.95546e-47 1.95813e-47 1.95849e-47 1.95793e-47 1.95758e-47 1.95827e-47 1.96055e-47 1.96471e-47 1.97084e-47 1.97882e-47 1.98843e-47 1.99939e-47 2.01137e-47 2.02405e-47 2.03715e-47 2.05042e-47 2.06362e-47 2.07656e-47 2.08907e-47 2.10097e-47 2.11206e-47 2.12215e-47 2.13101e-47 2.13838e-47 2.14401e-47 2.14765e-47 2.14906e-47 2.14805e-47 2.14448e-47 2.13827e-47 2.12944e-47 2.11808e-47 2.10434e-47 2.08844e-47 2.07065e-47 2.05126e-47 2.03055e-47 2.00881e-47 1.98628e-47 1.96318e-47 1.9397e-47 1.916e-47 1.89223e-47 1.86858e-47 1.84523e-47 1.82243e-47 1.80049e-47 1.77974e-47 1.76058e-47 1.74342e-47 1.72865e-47 1.71665e-47 1.7077e-47 1.70196e-47 1.69949e-47 1.70018e-47 1.70378e-47 1.70993e-47 1.71815e-47 1.72788e-47 1.73856e-47 1.74964e-47 1.76063e-47 1.77112e-47 1.78083e-47 1.78957e-47 1.79726e-47 1.80391e-47 1.80957e-47 1.8143e-47 1.81815e-47 1.82106e-47 1.82292e-47 1.82347e-47 1.82232e-47 1.81897e-47 1.81279e-47 1.80308e-47 1.78908e-47 1.77004e-47 1.74524e-47 1.71403e-47 1.67591e-47 1.63054e-47 1.57774e-47 1.5176e-47 1.45039e-47 1.37664e-47 1.29709e-47 1.21267e-47 1.12449e-47 1.03379e-47 9.41898e-48 8.50165e-48 7.59931e-48 6.72457e-48 5.88887e-48 5.10201e-48 4.37184e-48 3.7041e-48 3.10233e-48 2.5679e-48 2.1002e-48 1.69689e-48 1.3542e-48 1.06729e-48 8.30599e-49 6.3821e-49 4.84121e-49 3.62518e-49 2.67953e-49 1.95489e-49 1.40767e-49 1.00042e-49 7.0172e-50 4.85782e-50 3.31908e-50 2.23821e-50 1.4897e-50 9.78648e-51 6.34599e-51 4.06197e-51 2.56661e-51 1.601e-51 9.85962e-52 5.99501e-52 3.59924e-52 2.1338e-52 1.24925e-52 7.2232e-53 4.12505e-53 2.32692e-53 1.29665e-53 7.13814e-54 3.88247e-54 2.08654e-54 1.1081e-54 5.81566e-55 3.01664e-55 1.54663e-55 7.83786e-56 3.92541e-56 1.94083e-56 9.42509e-57 4.388e-57 1.72e-57 0 
0 1.94459e-75 6.80581e-75 2.17456e-74 6.84048e-74 2.13286e-73 6.59564e-73 2.02289e-72 6.15304e-72 1.85602e-71 5.55173e-71 1.64665e-70 4.84256e-70 1.41197e-69 4.08157e-69 1.16964e-68 3.3226e-68 9.35566e-68 2.61105e-67 7.22224e-67 1.97979e-66 5.37806e-66 1.44766e-65 3.86108e-65 1.0203e-64 2.6711e-64 6.92737e-64 1.77963e-63 4.52843e-63 1.14127e-62 2.84851e-62 7.04056e-62 1.72315e-61 4.17576e-61 1.00186e-60 2.37963e-60 5.59506e-60 1.30214e-59 2.99943e-59 6.83767e-59 1.54252e-58 3.44329e-58 7.60499e-58 1.66176e-57 3.59208e-57 7.68059e-57 1.62434e-56 3.39745e-56 7.02724e-56 1.43726e-55 2.90644e-55 5.81067e-55 1.14839e-54 2.24342e-54 4.33161e-54 8.26542e-54 1.55854e-53 2.90378e-53 5.34521e-53 9.72028e-53 1.74608e-52 3.09799e-52 5.42858e-52 9.3938e-52 1.60511e-51 2.70792e-51 4.51019e-51 7.41554e-51 1.20349e-50 1.92776e-50 3.04747e-50 4.75408e-50 7.31811e-50 1.11148e-49 1.66551e-49 2.46208e-49 3.59038e-49 5.16458e-49 7.32764e-49 1.02543e-48 1.41529e-48 1.92651e-48 2.58624e-48 3.42402e-48 4.47067e-48 5.75685e-48 7.31111e-48 9.15772e-48 1.13142e-47 1.37887e-47 1.65782e-47 1.96661e-47 2.30214e-47 2.65988e-47 3.03393e-47 3.41726e-47 3.802e-47 4.17989e-47 4.54271e-47 4.8828e-47 5.19353e-47 5.46968e-47 5.70771e-47 5.906e-47 6.06479e-47 6.18607e-47 6.27337e-47 6.33135e-47 6.36546e-47 6.38146e-47 6.38503e-47 6.38143e-47 6.37524e-47 6.37015e-47 6.36889e-47 6.37327e-47 6.38421e-47 6.4019e-47 6.42598e-47 6.45568e-47 6.49e-47 6.52786e-47 6.56819e-47 6.61001e-47 6.65247e-47 6.69481e-47 6.7364e-47 6.77664e-47 6.81495e-47 6.85071e-47 6.88326e-47 6.91184e-47 6.93566e-47 6.95387e-47 6.96566e-47 6.97027e-47 6.96705e-47 6.95557e-47 6.93558e-47 6.90713e-47 6.87049e-47 6.82618e-47 6.77491e-47 6.71754e-47 6.655e-47 6.58824e-47 6.51813e-47 6.4455e-47 6.37104e-47 6.29533e-47 6.21892e-47 6.1423e-47 6.06603e-47 5.99073e-47 5.9172e-47 5.84639e-47 5.77943e-47 5.71758e-47 5.66218e-47 5.61452e-47 5.57578e-47 5.54687e-47 5.52838e-47 5.52045e-47 5.52274e-47 5.53447e-47 5.55442e-47 5.58103e-47 5.61254e-47 5.64711e-47 5.68296e-47 5.71849e-47 5.75241e-47 5.78378e-47 5.81201e-47 5.83687e-47 5.85839e-47 5.87676e-47 5.8922e-47 5.90483e-47 5.91457e-47 5.921e-47 5.92333e-47 5.92031e-47 5.91031e-47 5.89132e-47 5.86106e-47 5.81708e-47 5.75689e-47 5.67815e-47 5.57874e-47 5.45697e-47 5.31165e-47 5.14223e-47 4.94883e-47 4.73233e-47 4.49433e-47 4.23719e-47 3.96389e-47 3.67799e-47 3.3835e-47 3.08471e-47 2.78605e-47 2.49189e-47 2.20639e-47 1.93331e-47 1.67592e-47 1.43683e-47 1.21797e-47 1.02057e-47 8.45113e-48 6.91455e-48 5.58864e-48 4.46135e-48 3.51704e-48 2.73768e-48 2.10394e-48 1.59619e-48 1.19537e-48 8.83607e-49 6.44662e-49 4.642e-49 3.29888e-49 2.31373e-49 1.60155e-49 1.0941e-49 7.37672e-50 4.90879e-50 3.22406e-50 2.0901e-50 1.33747e-50 8.44849e-51 5.26834e-51 3.24336e-51 1.97139e-51 1.18313e-51 7.01143e-52 4.10325e-52 2.37154e-52 1.35377e-52 7.63324e-53 4.25164e-53 2.33951e-53 1.27189e-53 6.83227e-54 3.6267e-54 1.90251e-54 9.86378e-55 5.05471e-55 2.56034e-55 1.28167e-55 6.33389e-56 3.07444e-56 1.43076e-56 5.6065e-57 0 
0 6.10215e-75 2.13618e-74 6.8274e-74 2.14834e-73 6.70059e-73 2.07274e-72 6.3592e-72 1.93492e-71 5.83853e-71 1.74703e-70 5.18353e-70 1.52495e-69 4.44803e-69 1.28627e-68 3.68745e-68 1.0479e-67 2.95183e-67 8.24154e-67 2.28059e-66 6.25427e-66 1.6997e-65 4.57723e-65 1.22135e-64 3.22892e-64 8.45712e-64 2.19435e-63 5.63998e-63 1.43584e-62 3.62044e-62 9.04091e-62 2.23576e-61 5.47481e-61 1.32743e-60 3.18652e-60 7.57277e-60 1.78152e-59 4.14847e-59 9.56123e-59 2.18088e-58 4.92276e-58 1.09953e-57 2.42991e-57 5.31276e-57 1.14911e-56 2.45853e-56 5.20266e-56 1.08886e-55 2.25359e-55 4.61209e-55 9.33254e-55 1.86698e-54 3.69216e-54 7.21737e-54 1.39442e-53 2.66249e-53 5.02361e-53 9.36568e-53 1.7251e-52 3.13907e-52 5.64232e-52 1.00171e-51 1.75636e-51 3.04109e-51 5.19935e-51 8.77672e-51 1.46264e-50 2.40618e-50 3.90715e-50 6.26179e-50 9.90384e-50 1.54575e-49 2.38053e-49 3.61715e-49 5.42238e-49 8.01885e-49 1.16978e-48 1.68321e-48 2.38888e-48 3.34387e-48 4.6162e-48 6.28473e-48 8.43812e-48 1.11726e-47 1.45887e-47 1.87859e-47 2.38569e-47 2.988e-47 3.6911e-47 4.49754e-47 5.40608e-47 6.41111e-47 7.5023e-47 8.66458e-47 9.87847e-47 1.11208e-46 1.23657e-46 1.35861e-46 1.47552e-46 1.58482e-46 1.68434e-46 1.77241e-46 1.84792e-46 1.91037e-46 1.95989e-46 1.99717e-46 2.0234e-46 2.04015e-46 2.04921e-46 2.05249e-46 2.05187e-46 2.04906e-46 2.04555e-46 2.04255e-46 2.04094e-46 2.0413e-46 2.0439e-46 2.04881e-46 2.05589e-46 2.06487e-46 2.07541e-46 2.08717e-46 2.09978e-46 2.11291e-46 2.12629e-46 2.13966e-46 2.15282e-46 2.16556e-46 2.17771e-46 2.18906e-46 2.1994e-46 2.20849e-46 2.21607e-46 2.22187e-46 2.22563e-46 2.22711e-46 2.2261e-46 2.22247e-46 2.21613e-46 2.2071e-46 2.19547e-46 2.1814e-46 2.16511e-46 2.14689e-46 2.12703e-46 2.10582e-46 2.08356e-46 2.0605e-46 2.03686e-46 2.01282e-46 1.98856e-46 1.96424e-46 1.94001e-46 1.9161e-46 1.89274e-46 1.87023e-46 1.84895e-46 1.82929e-46 1.81167e-46 1.79652e-46 1.7842e-46 1.77501e-46 1.76914e-46 1.76664e-46 1.76739e-46 1.77115e-46 1.77752e-46 1.78601e-46 1.79607e-46 1.80709e-46 1.81851e-46 1.82983e-46 1.84063e-46 1.85061e-46 1.8596e-46 1.86751e-46 1.87438e-46 1.88025e-46 1.88521e-46 1.8893e-46 1.89251e-46 1.8947e-46 1.89563e-46 1.89491e-46 1.89202e-46 1.88631e-46 1.87707e-46 1.8635e-46 1.84481e-46 1.82024e-46 1.7891e-46 1.75084e-46 1.70505e-46 1.65154e-46 1.59033e-46 1.52167e-46 1.44605e-46 1.3642e-46 1.27706e-46 1.18575e-46 1.09155e-46 9.9584e-47 9.00028e-47 8.05532e-47 7.13697e-47 6.25752e-47 5.42761e-47 4.65589e-47 3.94878e-47 3.31038e-47 2.74248e-47 2.24475e-47 1.81496e-47 1.44932e-47 1.14286e-47 8.89816e-48 6.83961e-48 5.18974e-48 3.88695e-48 2.87337e-48 2.0964e-48 1.50953e-48 1.07271e-48 7.52296e-49 5.20672e-49 3.55641e-49 2.39739e-49 1.59499e-49 1.04733e-49 6.78781e-50 4.34231e-50 2.74207e-50 1.70933e-50 1.05195e-50 6.39156e-51 3.83439e-51 2.2714e-51 1.32872e-51 7.67618e-52 4.37992e-52 2.46849e-52 1.37428e-52 7.5585e-53 4.10723e-53 2.20522e-53 1.17e-53 6.13452e-54 3.17891e-54 1.62821e-54 8.24311e-55 4.12427e-55 2.03715e-55 9.88339e-56 4.59742e-56 1.80094e-56 0 
0 1.89791e-74 6.64566e-74 2.12463e-73 6.68752e-73 2.08648e-72 6.45637e-72 1.98148e-71 6.03114e-71 1.8205e-70 5.44931e-70 1.61743e-69 4.76012e-69 1.38897e-68 4.01816e-68 1.15237e-67 3.27613e-67 9.2323e-67 2.57875e-66 7.13893e-66 1.95863e-65 5.32527e-65 1.43473e-64 3.83008e-64 1.01304e-63 2.65461e-63 6.89121e-63 1.77208e-62 4.51367e-62 1.1387e-61 2.84501e-61 7.03926e-61 1.72466e-60 4.18392e-60 1.00492e-59 2.38953e-59 5.62464e-59 1.31052e-58 3.0222e-58 6.89764e-58 1.55789e-57 3.48176e-57 7.69925e-57 1.68441e-56 3.64554e-56 7.80461e-56 1.65264e-55 3.46101e-55 7.16784e-55 1.46789e-54 2.97221e-54 5.94984e-54 1.17742e-53 2.30312e-53 4.45267e-53 8.50747e-53 1.60626e-52 2.99657e-52 5.52313e-52 1.00567e-51 1.80881e-51 3.21333e-51 5.6377e-51 9.76763e-51 1.671e-50 2.82242e-50 4.70636e-50 7.74684e-50 1.25864e-49 2.01825e-49 3.19381e-49 4.98729e-49 7.68432e-49 1.16815e-48 1.7519e-48 2.59182e-48 3.78232e-48 5.44429e-48 7.72911e-48 1.08218e-47 1.4943e-47 2.0348e-47 2.73241e-47 3.61829e-47 4.72487e-47 6.0843e-47 7.72639e-47 9.67619e-47 1.19514e-46 1.45597e-46 1.74966e-46 2.07429e-46 2.42646e-46 2.80119e-46 3.19208e-46 3.59157e-46 3.99122e-46 4.38223e-46 4.75591e-46 5.10423e-46 5.42027e-46 5.69869e-46 5.936e-46 6.13073e-46 6.28342e-46 6.39649e-46 6.47392e-46 6.5209e-46 6.54336e-46 6.54756e-46 6.53958e-46 6.52505e-46 6.50878e-46 6.49464e-46 6.48547e-46 6.48307e-46 6.48833e-46 6.50138e-46 6.52171e-46 6.54846e-46 6.58049e-46 6.6166e-46 6.65562e-46 6.69647e-46 6.73822e-46 6.78007e-46 6.82132e-46 6.86134e-46 6.89953e-46 6.93524e-46 6.96779e-46 6.99643e-46 7.02033e-46 7.03866e-46 7.05056e-46 7.05528e-46 7.05217e-46 7.04077e-46 7.02085e-46 6.99244e-46 6.95581e-46 6.9115e-46 6.86023e-46 6.80285e-46 6.74031e-46 6.67356e-46 6.60348e-46 6.53089e-46 6.45648e-46 6.38083e-46 6.30447e-46 6.2279e-46 6.15164e-46 6.07633e-46 6.00276e-46 5.93187e-46 5.8648e-46 5.80283e-46 5.7473e-46 5.69953e-46 5.6607e-46 5.63177e-46 5.6133e-46 5.60544e-46 5.60789e-46 5.61982e-46 5.64001e-46 5.66689e-46 5.69869e-46 5.73353e-46 5.76961e-46 5.80535e-46 5.83944e-46 5.87095e-46 5.8993e-46 5.9243e-46 5.94599e-46 5.96461e-46 5.98042e-46 5.99358e-46 6.00406e-46 6.01147e-46 6.01504e-46 6.01356e-46 6.0054e-46 5.98854e-46 5.96067e-46 5.91931e-46 5.86192e-46 5.78605e-46 5.6895e-46 5.57044e-46 5.42757e-46 5.26017e-46 5.06822e-46 4.85245e-46 4.61434e-46 4.35612e-46 4.08071e-46 3.79164e-46 3.49291e-46 3.1889e-46 2.88411e-46 2.58307e-46 2.29012e-46 2.00921e-46 1.7438e-46 1.49672e-46 1.2701e-46 1.06529e-46 8.82948e-47 7.23003e-47 5.8479e-47 4.67132e-47 3.68461e-47 2.86946e-47 2.20604e-47 1.67414e-47 1.25401e-47 9.27066e-48 6.76398e-48 4.87035e-48 3.46079e-48 2.42685e-48 1.67944e-48 1.14694e-48 7.73009e-49 5.14169e-49 3.37537e-49 2.187e-49 1.39864e-49 8.82923e-50 5.50199e-50 3.38475e-50 2.05575e-50 1.23278e-50 7.29959e-51 4.26822e-51 2.46469e-51 1.40567e-51 7.91848e-52 4.40632e-52 2.42227e-52 1.31558e-52 7.05995e-53 3.74378e-53 1.96192e-53 1.01614e-53 5.20186e-54 2.63215e-54 1.31625e-54 6.4981e-55 3.15101e-55 1.46508e-55 5.73719e-56 0 
0 5.85418e-74 2.0504e-73 6.55717e-73 2.0646e-72 6.44357e-72 1.99455e-71 6.12345e-71 1.86448e-70 5.62994e-70 1.68582e-69 5.00562e-69 1.47372e-68 4.3019e-68 1.24499e-67 3.57195e-67 1.01591e-66 2.86409e-66 8.00337e-66 2.2166e-65 6.08416e-65 1.65496e-64 4.46084e-64 1.19141e-63 3.15275e-63 8.26562e-63 2.14678e-62 5.52325e-62 1.40756e-61 3.55282e-61 8.88141e-61 2.19867e-60 5.38986e-60 1.30828e-59 3.14409e-59 7.48044e-59 1.76183e-58 4.10744e-58 9.47793e-58 2.16449e-57 4.89171e-57 1.09394e-56 2.42057e-56 5.29901e-56 1.1476e-55 2.45845e-55 5.20922e-55 1.09166e-54 2.26235e-54 4.63615e-54 9.3937e-54 1.88173e-53 3.72631e-53 7.29392e-53 1.41111e-52 2.69798e-52 5.09742e-52 9.51602e-52 1.75513e-51 3.19796e-51 5.75575e-51 1.02318e-50 1.79632e-50 3.11425e-50 5.33111e-50 9.01022e-50 1.50337e-49 2.47608e-49 4.02527e-49 6.45824e-49 1.02255e-48 1.5976e-48 2.46279e-48 3.74564e-48 5.61994e-48 8.31783e-48 1.21432e-47 1.74852e-47 2.48312e-47 3.4777e-47 4.80323e-47 6.54195e-47 8.78619e-47 1.16361e-46 1.51957e-46 1.95682e-46 2.48486e-46 3.11165e-46 3.84276e-46 4.6805e-46 5.62315e-46 6.66438e-46 7.7929e-46 8.99245e-46 1.02422e-45 1.15175e-45 1.27911e-45 1.40346e-45 1.52199e-45 1.63214e-45 1.7317e-45 1.81898e-45 1.89291e-45 1.95304e-45 1.99961e-45 2.03344e-45 2.05585e-45 2.06857e-45 2.07352e-45 2.07275e-45 2.06823e-45 2.06178e-45 2.05493e-45 2.04894e-45 2.0447e-45 2.04277e-45 2.04343e-45 2.04669e-45 2.0524e-45 2.06024e-45 2.06985e-45 2.08082e-45 2.09278e-45 2.10537e-45 2.11829e-45 2.13128e-45 2.1441e-45 2.15656e-45 2.16847e-45 2.17961e-45 2.18978e-45 2.19873e-45 2.20621e-45 2.21195e-45 2.21569e-45 2.21718e-45 2.21622e-45 2.21268e-45 2.20647e-45 2.1976e-45 2.18617e-45 2.17233e-45 2.15631e-45 2.13839e-45 2.11886e-45 2.09802e-45 2.07614e-45 2.05347e-45 2.03024e-45 2.00663e-45 1.98279e-45 1.95888e-45 1.93507e-45 1.91155e-45 1.88856e-45 1.86641e-45 1.84545e-45 1.82607e-45 1.80871e-45 1.79377e-45 1.78163e-45 1.77259e-45 1.76683e-45 1.76439e-45 1.76517e-45 1.76893e-45 1.77528e-45 1.78372e-45 1.7937e-45 1.80462e-45 1.81593e-45 1.82713e-45 1.8378e-45 1.84766e-45 1.85654e-45 1.86437e-45 1.87117e-45 1.87703e-45 1.88203e-45 1.88623e-45 1.88963e-45 1.89211e-45 1.89344e-45 1.89324e-45 1.891e-45 1.8861e-45 1.87782e-45 1.86536e-45 1.84792e-45 1.82473e-45 1.79508e-45 1.75839e-45 1.71422e-45 1.66231e-45 1.60265e-45 1.53543e-45 1.46109e-45 1.38031e-45 1.29398e-45 1.2032e-45 1.10923e-45 1.01344e-45 9.17244e-46 8.22091e-46 7.29359e-46 6.4032e-46 5.56089e-46 4.77583e-46 4.05496e-46 3.40286e-46 2.82173e-46 2.31156e-46 1.87039e-46 1.49457e-46 1.17922e-46 9.18558e-47 7.06326e-47 5.36102e-47 4.01607e-47 2.96919e-47 2.1664e-47 1.55986e-47 1.10835e-47 7.77142e-48 5.37728e-48 3.6717e-48 2.47413e-48 1.6453e-48 1.07981e-48 6.99434e-49 4.47167e-49 2.82188e-49 1.75784e-49 1.08098e-49 6.56279e-50 3.93387e-50 2.32833e-50 1.36081e-50 7.85436e-51 4.47737e-51 2.52098e-51 1.40213e-51 7.70394e-52 4.18201e-52 2.24306e-52 1.18883e-52 6.22674e-53 3.22329e-53 1.64918e-53 8.34037e-54 4.16848e-54 2.05681e-54 9.96855e-55 4.63276e-55 1.81354e-55 0 
0 1.79085e-73 6.27402e-73 2.00705e-72 6.32148e-72 1.97358e-71 6.11113e-71 1.87682e-70 5.71662e-70 1.72681e-69 5.17267e-69 1.53648e-68 4.52536e-68 1.32151e-67 3.82606e-67 1.09818e-66 3.12468e-66 8.813e-66 2.46378e-65 6.82669e-65 1.87466e-64 5.10166e-64 1.37578e-63 3.67623e-63 9.733e-63 2.553e-62 6.63414e-62 1.70773e-61 4.35433e-61 1.09967e-60 2.75048e-60 6.81287e-60 1.67106e-59 4.0585e-59 9.75919e-59 2.32329e-58 5.47524e-58 1.27725e-57 2.94908e-57 6.73907e-57 1.52399e-56 3.41031e-56 7.55092e-56 1.65411e-55 3.58464e-55 7.68439e-55 1.62935e-54 3.41684e-54 7.08596e-54 1.4531e-53 2.94631e-53 5.90613e-53 1.17039e-52 2.29254e-52 4.43838e-52 8.49196e-52 1.60556e-51 2.99942e-51 5.53601e-51 1.0094e-50 1.818e-50 3.23402e-50 5.68158e-50 9.85666e-50 1.68842e-49 2.8555e-49 4.76747e-49 7.85702e-49 1.27806e-48 2.05176e-48 3.25045e-48 5.08116e-48 7.83698e-48 1.19251e-47 1.79008e-47 2.65058e-47 3.87115e-47 5.57621e-47 7.92158e-47 1.10978e-46 1.53317e-46 2.0886e-46 2.80558e-46 3.71605e-46 4.8532e-46 6.24981e-46 7.93604e-46 9.93701e-46 1.227e-45 1.49419e-45 1.79465e-45 2.12627e-45 2.48536e-45 2.86664e-45 3.26335e-45 3.66754e-45 4.07045e-45 4.46297e-45 4.83614e-45 5.18177e-45 5.4929e-45 5.76423e-45 5.99244e-45 6.17631e-45 6.31671e-45 6.41643e-45 6.47989e-45 6.51266e-45 6.52108e-45 6.5117e-45 6.4909e-45 6.46448e-45 6.43739e-45 6.41355e-45 6.3958e-45 6.38589e-45 6.38466e-45 6.39209e-45 6.40761e-45 6.43021e-45 6.45866e-45 6.49167e-45 6.52797e-45 6.56643e-45 6.60605e-45 6.64599e-45 6.68552e-45 6.724e-45 6.7608e-45 6.79529e-45 6.82679e-45 6.85455e-45 6.87777e-45 6.8956e-45 6.90724e-45 6.91192e-45 6.90902e-45 6.89808e-45 6.87887e-45 6.85143e-45 6.81602e-45 6.77315e-45 6.72354e-45 6.66803e-45 6.60752e-45 6.54295e-45 6.47518e-45 6.405e-45 6.33306e-45 6.25994e-45 6.18613e-45 6.11209e-45 6.03834e-45 5.96547e-45 5.89425e-45 5.82559e-45 5.7606e-45 5.70052e-45 5.64667e-45 5.60033e-45 5.56269e-45 5.53466e-45 5.51681e-45 5.5093e-45 5.51182e-45 5.52357e-45 5.54335e-45 5.56964e-45 5.60069e-45 5.63467e-45 5.66983e-45 5.70462e-45 5.73777e-45 5.7684e-45 5.79596e-45 5.82028e-45 5.84145e-45 5.85973e-45 5.87543e-45 5.88875e-45 5.89969e-45 5.90793e-45 5.91274e-45 5.91299e-45 5.90711e-45 5.89315e-45 5.86885e-45 5.83176e-45 5.77938e-45 5.70924e-45 5.61911e-45 5.5071e-45 5.37179e-45 5.21232e-45 5.02852e-45 4.82091e-45 4.59079e-45 4.34019e-45 4.07184e-45 3.78911e-45 3.49588e-45 3.19642e-45 2.89522e-45 2.5968e-45 2.30553e-45 2.02547e-45 1.76018e-45 1.51262e-45 1.28505e-45 1.07897e-45 8.95139e-46 7.33622e-46 5.93838e-46 4.74681e-46 3.74634e-46 2.91895e-46 2.24497e-46 1.70419e-46 1.27679e-46 9.44019e-47 6.88792e-47 4.95936e-47 3.5236e-47 2.47039e-47 1.7091e-47 1.16679e-47 7.86067e-48 5.22607e-48 3.42894e-48 2.2204e-48 1.4191e-48 8.95218e-49 5.57451e-49 3.42669e-49 2.07953e-49 1.24597e-49 7.37118e-50 4.30613e-50 2.48424e-50 1.41544e-50 7.96561e-51 4.42805e-51 2.43171e-51 1.31933e-51 7.07254e-52 3.74644e-52 1.96119e-52 1.01465e-52 5.18856e-53 2.62254e-53 1.31e-53 6.46023e-54 3.12935e-54 1.45363e-54 5.68833e-55 0 
0 5.43295e-73 1.90387e-72 6.09236e-72 1.91951e-71 5.9948e-71 1.85692e-70 5.70494e-70 1.7383e-69 5.25282e-69 1.57409e-68 4.67745e-68 1.37819e-67 4.02627e-67 1.16618e-66 3.34865e-66 9.53213e-66 2.68968e-65 7.5227e-65 2.08537e-64 5.72927e-64 1.5599e-63 4.20866e-63 1.12516e-62 2.98042e-62 7.82178e-62 2.03361e-61 5.23762e-61 1.3362e-60 3.3764e-60 8.44978e-60 2.09419e-59 5.13962e-59 1.24899e-58 3.00517e-58 7.15854e-58 1.68808e-57 3.94037e-57 9.10383e-57 2.0817e-56 4.71068e-56 1.05483e-55 2.33711e-55 5.12315e-55 1.11101e-54 2.38331e-54 5.05696e-54 1.06122e-53 2.20235e-53 4.51954e-53 9.17038e-53 1.83961e-52 3.64811e-52 7.15108e-52 1.38546e-51 2.65275e-51 5.01916e-51 9.38335e-51 1.73314e-50 3.16237e-50 5.69973e-50 1.01464e-49 1.7838e-49 3.09677e-49 5.30833e-49 8.98361e-49 1.50087e-48 2.47511e-48 4.02866e-48 6.47144e-48 1.02583e-47 1.60451e-47 2.47607e-47 3.76966e-47 5.66138e-47 8.38668e-47 1.22539e-46 1.7658e-46 2.50939e-46 3.51663e-46 4.85957e-46 6.62159e-46 8.89626e-46 1.17848e-45 1.53924e-45 1.98223e-45 2.51698e-45 3.15134e-45 3.89066e-45 4.7369e-45 5.68789e-45 6.73667e-45 7.87124e-45 9.0745e-45 1.03248e-44 1.15966e-44 1.28619e-44 1.40917e-44 1.52577e-44 1.63338e-44 1.72983e-44 1.81346e-44 1.88327e-44 1.93892e-44 1.98073e-44 2.00966e-44 2.02714e-44 2.03499e-44 2.03526e-44 2.03004e-44 2.02139e-44 2.01114e-44 2.00086e-44 1.99179e-44 1.98481e-44 1.98047e-44 1.979e-44 1.9804e-44 1.98446e-44 1.99085e-44 1.99916e-44 2.00897e-44 2.01988e-44 2.03152e-44 2.04356e-44 2.05574e-44 2.06782e-44 2.0796e-44 2.09089e-44 2.10148e-44 2.11115e-44 2.11969e-44 2.12684e-44 2.13234e-44 2.13593e-44 2.13739e-44 2.13651e-44 2.13316e-44 2.12727e-44 2.11885e-44 2.10797e-44 2.0948e-44 2.07956e-44 2.0625e-44 2.04391e-44 2.02408e-44 2.00326e-44 1.9817e-44 1.95961e-44 1.93715e-44 1.91448e-44 1.89174e-44 1.86909e-44 1.8467e-44 1.82481e-44 1.8037e-44 1.78372e-44 1.76524e-44 1.74867e-44 1.73442e-44 1.72284e-44 1.71422e-44 1.70874e-44 1.70645e-44 1.70724e-44 1.71089e-44 1.71701e-44 1.72513e-44 1.73471e-44 1.7452e-44 1.75604e-44 1.76676e-44 1.77698e-44 1.78641e-44 1.7949e-44 1.80239e-44 1.80893e-44 1.81459e-44 1.81948e-44 1.82367e-44 1.82717e-44 1.82988e-44 1.83159e-44 1.83195e-44 1.83048e-44 1.82659e-44 1.81958e-44 1.80868e-44 1.79313e-44 1.77214e-44 1.74502e-44 1.71116e-44 1.67011e-44 1.62156e-44 1.56545e-44 1.50189e-44 1.43128e-44 1.35419e-44 1.27147e-44 1.18414e-44 1.09338e-44 1.00052e-44 9.06955e-45 8.14098e-45 7.23324e-45 6.35913e-45 5.52998e-45 4.75525e-45 4.04222e-45 3.39584e-45 2.81869e-45 2.31114e-45 1.87153e-45 1.49652e-45 1.18146e-45 9.20759e-46 7.083e-46 5.37764e-46 4.02936e-46 2.97937e-46 2.17389e-46 1.56518e-46 1.11197e-46 7.79515e-47 5.39214e-47 3.68052e-47 2.47902e-47 1.64773e-47 1.08081e-47 6.99657e-48 4.47013e-48 2.8189e-48 1.75465e-48 1.07815e-48 6.54011e-49 3.91682e-49 2.31612e-49 1.35239e-49 7.79818e-50 4.4409e-50 2.49789e-50 1.38783e-50 7.6173e-51 4.13052e-51 2.21303e-51 1.17162e-51 6.12975e-52 3.16953e-52 1.61985e-52 8.18277e-53 4.08509e-53 2.01341e-53 9.74764e-54 4.52567e-54 1.77034e-54 0 
0 1.63444e-72 5.72911e-72 1.8339e-71 5.78002e-71 1.80578e-70 5.5955e-70 1.71971e-69 5.24193e-69 1.58462e-68 4.75039e-68 1.41216e-67 4.16255e-67 1.21656e-66 3.52518e-66 1.01268e-65 2.88395e-65 8.14131e-65 2.27807e-64 6.31802e-64 1.73663e-63 4.73059e-63 1.27697e-62 3.41563e-62 9.05234e-62 2.37694e-61 6.18321e-61 1.59338e-60 4.06724e-60 1.02832e-59 2.57495e-59 6.38549e-59 1.56808e-58 3.81296e-58 9.17992e-58 2.1881e-57 5.16309e-57 1.20597e-56 2.78809e-56 6.37953e-56 1.44459e-55 3.23698e-55 7.1769e-55 1.57433e-54 3.41651e-54 7.33424e-54 1.55731e-53 3.27044e-53 6.79211e-53 1.39487e-52 2.83235e-52 5.68604e-52 1.12844e-51 2.21364e-51 4.29197e-51 8.22404e-51 1.55721e-50 2.91341e-50 5.38521e-50 9.83348e-50 1.77366e-49 3.15973e-49 5.55904e-49 9.65774e-49 1.65666e-48 2.80563e-48 4.69052e-48 7.7404e-48 1.2607e-47 2.02642e-47 3.21417e-47 5.03028e-47 7.7671e-47 1.18313e-46 1.77776e-46 2.63481e-46 3.85145e-46 5.55226e-46 7.89326e-46 1.10652e-45 1.52951e-45 2.08459e-45 2.80123e-45 3.7113e-45 4.84782e-45 6.24325e-45 7.92731e-45 9.92441e-45 1.22509e-44 1.49125e-44 1.79014e-44 2.1195e-44 2.47545e-44 2.85249e-44 3.24372e-44 3.64101e-44 4.03548e-44 4.41793e-44 4.77944e-44 5.11187e-44 5.40841e-44 5.66398e-44 5.87554e-44 6.04219e-44 6.16514e-44 6.24752e-44 6.29405e-44 6.3106e-44 6.3037e-44 6.28009e-44 6.24623e-44 6.20795e-44 6.17018e-44 6.13679e-44 6.11052e-44 6.09303e-44 6.08502e-44 6.08638e-44 6.09643e-44 6.11407e-44 6.13799e-44 6.16682e-44 6.19926e-44 6.23413e-44 6.2704e-44 6.30722e-44 6.34383e-44 6.3796e-44 6.41391e-44 6.44614e-44 6.47563e-44 6.50167e-44 6.52349e-44 6.5403e-44 6.55131e-44 6.55581e-44 6.5532e-44 6.54304e-44 6.52513e-44 6.49947e-44 6.46634e-44 6.42622e-44 6.37977e-44 6.32778e-44 6.27114e-44 6.2107e-44 6.14728e-44 6.08161e-44 6.01432e-44 5.94593e-44 5.87688e-44 5.80761e-44 5.73859e-44 5.67036e-44 5.60364e-44 5.53928e-44 5.47834e-44 5.42197e-44 5.37142e-44 5.32794e-44 5.29261e-44 5.26633e-44 5.24965e-44 5.2427e-44 5.24521e-44 5.25641e-44 5.27519e-44 5.30008e-44 5.32943e-44 5.36151e-44 5.39468e-44 5.42746e-44 5.45867e-44 5.48748e-44 5.51342e-44 5.53633e-44 5.55635e-44 5.57375e-44 5.58887e-44 5.60195e-44 5.61304e-44 5.62187e-44 5.62782e-44 5.62984e-44 5.62648e-44 5.61591e-44 5.59602e-44 5.56446e-44 5.51883e-44 5.45674e-44 5.376e-44 5.27469e-44 5.15132e-44 5.00493e-44 4.83517e-44 4.64236e-44 4.42755e-44 4.1925e-44 3.93965e-44 3.67211e-44 3.39351e-44 3.10789e-44 2.81956e-44 2.5329e-44 2.25221e-44 1.9815e-44 1.72435e-44 1.48375e-44 1.26204e-44 1.06083e-44 8.80989e-45 7.22687e-45 5.85463e-45 4.68319e-45 3.69837e-45 2.88303e-45 2.21824e-45 1.68442e-45 1.26223e-45 9.33367e-46 6.81037e-46 4.90322e-46 3.4832e-46 2.44152e-46 1.68861e-46 1.15238e-46 7.76007e-47 5.15656e-47 3.38139e-47 2.18823e-47 1.39758e-47 8.80993e-48 5.48163e-48 3.3668e-48 2.04141e-48 1.22202e-48 7.22266e-49 4.21525e-49 2.42937e-49 1.38275e-49 7.77343e-50 4.31658e-50 2.3679e-50 1.28328e-50 6.87158e-51 3.63585e-51 1.90112e-51 9.82443e-52 5.01802e-52 2.53339e-52 1.264e-52 6.22621e-53 3.01264e-53 1.39801e-53 5.46661e-54 0 