# vtk DataFile Version 3.0
Gray-Scott Simulation Output
ASCII
DATASET STRUCTURED_POINTS
DIMENSIONS 256 256 1
SPACING 1.0 1.0 1.0
ORIGIN 0 0 0
POINT_DATA 65536
SCALARS u double
LOOKUP_TABLE default
0 0 0 0 0 0 0 0 0 0 0 0 0 0 0 0 0 0 0 0 0 0 0 0 0 0 0 0 0 0 0 0 0 0 0 0 0 0 0 0 0 0 0 0 0 0 0 0 0 0 0 0 0 0 0 0 0 0 0 0 0 0 0 0 0 0 0 0 0 0 0 0 0 0 0 0 0 0 0 0 0 0 0 0 0 0 0 0 0 0 0 0 0 0 0 0 0 0 0 0 0 0 0 0 0 0 0 0 0 0 0 0 0 0 0 0 0 0 0 0 0 0 0 0 0 0 0 0 0 0 0 0 0 0 0 0 0 0 0 0 0 0 0 0 0 0 0 0 0 0 0 0 0 0 0 0 0 0 0 0 0 0 0 0 0 0 0 0 0 0 0 0 0 0 0 0 0 0 0 0 0 0 0 0 0 0 0 0 0 0 0 0 0 0 0 0 0 0 0 0 0 0 0 0 0 0 0 0 0 0 0 0 0 0 0 0 0 0 0 0 0 0 0 0 0 0 0 0 0 0 0 0 0 0 0 0 0 0 0 0 0 0 0 0 0 0 0 0 0 0 0 0 0 0 0 0 
0 1.14358e-295 1.2929e-293 1.43981e-291 1.57936e-289 1.70631e-287 1.81552e-285 1.90225e-283 1.96257e-281 1.99355e-279 1.99359e-277 1.9625e-275 1.90152e-273 1.81328e-271 1.7016e-269 1.5712e-267 1.42736e-265 1.2756e-263 1.12131e-261 9.6941e-260 8.24152e-258 6.88918e-256 5.66148e-254 4.57333e-252 3.6309e-250 2.83275e-248 2.17145e-246 1.6352e-244 1.20948e-242 8.78541e-241 6.26591e-239 4.38721e-237 3.01504e-235 2.03337e-233 1.34547e-231 8.73319e-230 5.55937e-228 3.47005e-226 2.12327e-224 1.27331e-222 7.48193e-221 4.30664e-219 2.4277e-217 1.33988e-215 7.23823e-214 3.82617e-212 1.97849e-210 1.00047e-208 4.94577e-207 2.38933e-205 1.12766e-203 5.19736e-202 2.33842e-200 1.02665e-198 4.39647e-197 1.8356e-195 7.46874e-194 2.96009e-192 1.14218e-190 4.28857e-189 1.56602e-187 5.55825e-186 1.91635e-184 6.41402e-183 2.08263e-181 6.55559e-180 1.99896e-178 5.89991e-177 1.6841e-175 4.64501e-174 1.23676e-172 3.17562e-171 7.85494e-170 1.8695e-168 4.27602e-167 9.38649e-166 1.97466e-164 3.97496e-163 7.6435e-162 1.40144e-160 2.44518e-159 4.05089e-158 6.3569e-157 9.42413e-156 1.31599e-154 1.72523e-153 2.1155e-152 2.4162e-151 2.55816e-150 2.497e-149 2.23276e-148 1.81534e-147 1.33025e-146 8.6926e-146 5.00021e-145 2.49162e-144 1.05409e-143 3.69028e-143 1.03518e-142 2.24054e-142 3.6306e-142 4.53795e-142 5.08331e-142 5.34536e-142 5.24687e-142 4.49362e-142 3.43652e-142 2.78575e-142 2.59315e-142 2.51225e-142 2.44891e-142 2.55405e-142 2.76126e-142 3.07713e-142 3.14384e-142 3.08334e-142 3.3754e-142 3.98329e-142 4.58151e-142 4.86773e-142 4.8097e-142 4.1903e-142 3.44192e-142 3.24654e-142 3.61171e-142 4.25448e-142 4.3868e-142 4.00932e-142 3.7612e-142 3.9477e-142 4.2191e-142 4.04698e-142 3.75878e-142 3.77842e-142 4.08805e-142 4.49497e-142 5.09277e-142 5.632e-142 5.88459e-142 5.69271e-142 4.95009e-142 4.04614e-142 3.65438e-142 3.87823e-142 4.00826e-142 3.78847e-142 3.3186e-142 3.12298e-142 3.06722e-142 3.01826e-142 3.28601e-142 3.65456e-142 3.4394e-142 3.09283e-142 3.29039e-142 3.89649e-142 4.42e-142 4.33957e-142 3.48609e-142 2.54565e-142 1.95172e-142 1.7073e-142 1.60889e-142 1.58633e-142 1.7375e-142 2.07176e-142 2.47586e-142 2.77516e-142 3.35351e-142 4.16591e-142 4.49898e-142 4.27322e-142 3.77748e-142 3.63218e-142 3.72097e-142 3.52183e-142 3.17183e-142 2.81066e-142 2.67908e-142 2.71075e-142 2.71997e-142 2.78369e-142 2.99391e-142 3.31659e-142 3.53407e-142 3.57462e-142 3.15595e-142 2.9276e-142 3.57821e-142 4.75043e-142 5.33134e-142 4.84065e-142 3.76727e-142 2.93429e-142 2.55566e-142 2.30296e-142 2.16613e-142 1.9793e-142 1.59569e-142 1.22195e-142 9.17178e-143 5.61555e-143 2.61273e-143 9.39663e-144 2.7052e-144 6.43639e-145 1.29869e-145 2.26805e-146 3.48444e-147 4.7713e-148 5.88608e-149 6.60047e-150 6.77871e-151 6.41691e-152 5.63001e-153 4.60027e-154 3.51542e-155 2.5218e-156 1.70381e-157 1.08742e-158 6.57354e-160 3.77293e-161 2.06057e-162 1.073e-163 5.33714e-165 2.5401e-166 1.15852e-167 5.07096e-169 2.13301e-170 8.63281e-172 3.36566e-173 1.26538e-174 4.59239e-176 1.61043e-177 5.46159e-179 1.79281e-180 5.70077e-182 1.75729e-183 5.25496e-185 1.52548e-186 4.30162e-188 1.17898e-189 3.14256e-191 8.15077e-193 2.05816e-194 5.06225e-196 1.21338e-197 2.83554e-199 6.46324e-201 1.43754e-202 3.1212e-204 6.61787e-206 1.37078e-207 2.77478e-209 5.48888e-211 0 
0 1.29289e-293 1.45459e-291 1.61202e-289 1.75974e-287 1.89207e-285 2.00355e-283 2.08929e-281 2.14534e-279 2.16896e-277 2.15884e-275 2.11526e-273 2.04002e-271 1.93638e-269 1.80876e-267 1.6625e-265 1.50343e-263 1.33749e-261 1.1704e-259 1.00731e-257 8.52543e-256 7.09478e-254 5.8046e-252 4.66825e-250 3.68998e-248 2.86626e-246 2.18757e-244 1.6402e-242 1.20794e-240 8.73655e-239 6.20441e-237 4.32564e-235 2.96013e-233 1.98791e-231 1.30985e-229 8.46645e-228 5.3671e-226 3.33613e-224 2.03289e-222 1.21409e-220 7.10475e-219 4.07285e-217 2.28658e-215 1.25689e-213 6.76252e-212 3.56036e-210 1.83368e-208 9.23554e-207 4.54744e-205 2.18823e-203 1.02869e-201 4.72263e-200 2.11654e-198 9.25629e-197 3.94853e-195 1.64223e-193 6.65631e-192 2.62802e-190 1.01019e-188 3.7786e-187 1.37459e-185 4.86046e-184 1.66949e-182 5.56695e-181 1.80087e-179 5.64771e-178 1.71578e-176 5.04551e-175 1.43495e-173 3.94341e-172 1.04615e-170 2.67648e-169 6.5965e-168 1.56437e-166 3.56533e-165 7.79862e-164 1.63481e-162 3.27926e-161 6.28361e-160 1.14808e-158 1.99616e-157 3.29556e-156 5.15379e-155 7.61433e-154 1.05964e-152 1.38445e-151 1.69191e-150 1.92592e-149 2.03228e-148 1.97714e-147 1.76211e-146 1.42803e-145 1.04308e-144 6.79453e-144 3.89627e-143 1.93567e-142 8.16526e-142 2.85083e-141 7.97782e-141 1.7235e-140 2.79015e-140 3.48813e-140 3.90783e-140 4.1093e-140 4.0327e-140 3.45432e-140 2.64323e-140 2.14246e-140 1.993e-140 1.93059e-140 1.88265e-140 1.96351e-140 2.12294e-140 2.3645e-140 2.41595e-140 2.37079e-140 2.59521e-140 3.06179e-140 3.52116e-140 3.74142e-140 3.69631e-140 3.22149e-140 2.64827e-140 2.49821e-140 2.7783e-140 3.27001e-140 3.37139e-140 3.08279e-140 2.89291e-140 3.03536e-140 3.24243e-140 3.11091e-140 2.89042e-140 2.90544e-140 3.14304e-140 3.45651e-140 3.91583e-140 4.33011e-140 4.524e-140 4.37609e-140 3.80609e-140 3.11298e-140 2.81207e-140 2.98192e-140 3.08096e-140 2.9121e-140 2.55225e-140 2.40116e-140 2.35787e-140 2.32147e-140 2.52698e-140 2.8083e-140 2.64412e-140 2.37952e-140 2.53072e-140 2.9951e-140 3.39613e-140 3.33389e-140 2.67964e-140 1.95759e-140 1.50071e-140 1.31206e-140 1.23621e-140 1.21929e-140 1.33561e-140 1.59229e-140 1.90249e-140 2.13407e-140 2.579e-140 3.20168e-140 3.45757e-140 3.28478e-140 2.90539e-140 2.79318e-140 2.8597e-140 2.70681e-140 2.43788e-140 2.16075e-140 2.05921e-140 2.08289e-140 2.09021e-140 2.13959e-140 2.30134e-140 2.5491e-140 2.71642e-140 2.7469e-140 2.42709e-140 2.25384e-140 2.75324e-140 3.65131e-140 4.09649e-140 3.72041e-140 2.89718e-140 2.257e-140 1.96463e-140 1.77023e-140 1.66445e-140 1.52036e-140 1.22624e-140 9.39257e-141 7.04645e-141 4.31692e-141 2.01193e-141 7.25276e-142 2.09361e-142 4.99568e-143 1.01105e-143 1.77121e-144 2.7298e-145 3.75005e-146 4.64136e-147 5.22188e-148 5.38077e-149 5.11068e-150 4.49912e-151 3.68872e-152 2.82848e-153 2.03599e-154 1.38033e-155 8.84025e-157 5.36265e-158 3.08871e-159 1.69282e-160 8.84616e-162 4.41574e-163 2.10907e-164 9.6537e-166 4.24071e-167 1.79022e-168 7.27168e-170 2.84531e-171 1.07365e-172 3.91084e-174 1.37648e-175 4.68541e-177 1.54373e-178 4.92703e-180 1.52446e-181 4.57582e-183 1.33334e-184 3.77403e-186 1.03831e-187 2.77816e-189 7.23324e-191 1.8335e-192 4.52708e-194 1.08931e-195 2.5555e-197 5.84769e-199 1.30574e-200 2.84619e-202 6.05863e-204 1.25993e-205 2.56055e-207 5.08538e-209 0 
0 1.43978e-291 1.612e-289 1.77785e-287 1.93145e-285 2.06678e-283 2.17815e-281 2.26063e-279 2.31034e-277 2.32483e-275 2.3032e-273 2.24623e-271 2.15633e-269 2.03736e-267 1.89438e-265 1.73327e-263 1.56031e-261 1.38183e-259 1.20377e-257 1.03139e-255 8.6904e-254 7.20001e-252 5.8647e-250 4.69587e-248 3.69557e-246 2.8581e-244 2.17189e-242 1.62141e-240 1.18898e-238 8.56259e-237 6.05497e-235 4.20355e-233 2.86443e-231 1.91555e-229 1.25689e-227 8.09026e-226 5.10733e-224 3.16154e-222 1.91857e-220 1.14112e-218 6.65048e-217 3.79694e-215 2.12305e-213 1.1623e-211 6.22846e-210 3.26608e-208 1.67542e-206 8.405e-205 4.12215e-203 1.97578e-201 9.25179e-200 4.23086e-198 1.88878e-196 8.22825e-195 3.49647e-193 1.44863e-191 5.84917e-190 2.30056e-188 8.80963e-187 3.28278e-185 1.18972e-183 4.19104e-182 1.43419e-180 4.76454e-179 1.53559e-177 4.79801e-176 1.45229e-174 4.25505e-173 1.20574e-171 3.30148e-170 8.72687e-169 2.22466e-167 5.46327e-166 1.291e-164 2.93183e-163 6.39024e-162 1.33486e-160 2.66818e-159 5.09481e-158 9.27634e-157 1.60729e-155 2.6444e-154 4.12127e-153 6.06805e-152 8.41587e-151 1.09584e-149 1.3347e-148 1.51423e-147 1.59255e-146 1.54424e-145 1.37179e-144 1.10812e-143 8.06816e-143 5.23899e-142 2.99498e-141 1.48344e-140 6.23957e-140 2.17262e-139 6.06538e-139 1.30791e-138 2.11538e-138 2.64506e-138 2.96371e-138 3.11652e-138 3.05776e-138 2.61964e-138 2.00567e-138 1.62551e-138 1.5111e-138 1.4636e-138 1.42782e-138 1.48918e-138 1.61018e-138 1.79243e-138 1.83157e-138 1.79834e-138 1.96846e-138 2.32176e-138 2.66977e-138 2.83697e-138 2.80239e-138 2.44331e-138 2.01018e-138 1.89647e-138 2.10842e-138 2.4795e-138 2.55612e-138 2.33844e-138 2.19508e-138 2.30242e-138 2.45829e-138 2.35914e-138 2.19272e-138 2.20405e-138 2.38393e-138 2.62216e-138 2.97033e-138 3.28434e-138 3.43116e-138 3.31868e-138 2.88707e-138 2.36277e-138 2.13475e-138 2.26189e-138 2.33629e-138 2.20832e-138 1.93642e-138 1.82131e-138 1.78815e-138 1.76148e-138 1.9171e-138 2.12894e-138 2.00535e-138 1.80605e-138 1.92021e-138 2.27122e-138 2.57428e-138 2.52677e-138 2.032e-138 1.48508e-138 1.13837e-138 9.94728e-139 9.37055e-139 9.24538e-139 1.01284e-138 1.20728e-138 1.4422e-138 1.61896e-138 1.95665e-138 2.42749e-138 2.62144e-138 2.49097e-138 2.20453e-138 2.11905e-138 2.16819e-138 2.05237e-138 1.84851e-138 1.63873e-138 1.56143e-138 1.57888e-138 1.5846e-138 1.62235e-138 1.74515e-138 1.93281e-138 2.05982e-138 2.08241e-138 1.84142e-138 1.71176e-138 2.08993e-138 2.76871e-138 3.10527e-138 2.82091e-138 2.19802e-138 1.71264e-138 1.48994e-138 1.34239e-138 1.26172e-138 1.1521e-138 9.29629e-139 7.12232e-139 5.34067e-139 3.27386e-139 1.52838e-139 5.52241e-140 1.59838e-140 3.825e-141 7.76457e-142 1.36447e-142 2.10959e-143 2.90738e-144 3.61013e-145 4.07505e-146 4.21299e-147 4.01491e-148 3.54638e-149 2.91744e-150 2.24469e-151 1.6213e-152 1.10297e-153 7.08836e-155 4.31487e-156 2.4939e-157 1.37162e-158 7.19289e-160 3.60317e-161 1.72708e-162 7.93343e-164 3.4975e-165 1.48178e-166 6.04057e-168 2.37216e-169 8.98365e-171 3.28432e-172 1.1602e-173 3.96378e-175 1.3108e-176 4.19911e-178 1.30408e-179 3.92897e-181 1.14915e-182 3.26496e-184 9.01656e-186 2.42169e-187 6.32918e-189 1.61048e-190 3.99172e-192 9.64197e-194 2.27077e-195 5.21636e-197 1.16932e-198 2.55883e-200 5.4684e-202 1.14169e-203 2.32946e-205 4.64486e-207 0 
0 1.5793e-289 1.75969e-287 1.93143e-285 2.08827e-283 2.22397e-281 2.33273e-279 2.40966e-277 2.45112e-275 2.45498e-273 2.42085e-271 2.35007e-269 2.24563e-267 2.11203e-265 1.95487e-263 1.7805e-261 1.59559e-259 1.40673e-257 1.21998e-255 1.04063e-253 8.72932e-252 7.20034e-250 5.8392e-248 4.65501e-246 3.64746e-244 2.80867e-242 2.12511e-240 1.57968e-238 1.15342e-236 8.27109e-235 5.82403e-233 4.02615e-231 2.73201e-229 1.81935e-227 1.18879e-225 7.62014e-224 4.79066e-222 2.95331e-220 1.78486e-218 1.05726e-216 6.13669e-215 3.48942e-213 1.94324e-211 1.05958e-209 5.65536e-208 2.95375e-206 1.5092e-204 7.5412e-203 3.68397e-201 1.75884e-199 8.20382e-198 3.73704e-196 1.66187e-194 7.21185e-193 3.0528e-191 1.25998e-189 5.06808e-188 1.98579e-186 7.57554e-185 2.81229e-183 1.0154e-181 3.56359e-180 1.21494e-178 4.02122e-177 1.29124e-175 4.01972e-174 1.21226e-172 3.53886e-171 9.99155e-170 2.72594e-168 7.17959e-167 1.82366e-165 4.46253e-164 1.05076e-162 2.37782e-161 5.16444e-160 1.07501e-158 2.14127e-157 4.07445e-156 7.39282e-155 1.27651e-153 2.09298e-152 3.25073e-151 4.77001e-150 6.5932e-149 8.55617e-148 1.03863e-146 1.17441e-145 1.23107e-144 1.1898e-143 1.0535e-142 8.48266e-142 6.15651e-141 3.98514e-140 2.27119e-139 1.12157e-138 4.70396e-138 1.63353e-137 4.54952e-137 9.7923e-137 1.58231e-136 1.97889e-136 2.21757e-136 2.33192e-136 2.28746e-136 1.96002e-136 1.50148e-136 1.21676e-136 1.13036e-136 1.0947e-136 1.06835e-136 1.11429e-136 1.2049e-136 1.34056e-136 1.36993e-136 1.34582e-136 1.47305e-136 1.737e-136 1.9971e-136 2.12234e-136 2.0962e-136 1.82828e-136 1.50538e-136 1.42038e-136 1.57861e-136 1.85491e-136 1.91203e-136 1.75005e-136 1.64326e-136 1.72306e-136 1.83882e-136 1.76506e-136 1.64114e-136 1.64957e-136 1.78393e-136 1.96255e-136 2.22294e-136 2.45775e-136 2.56745e-136 2.48306e-136 2.16062e-136 1.76932e-136 1.59885e-136 1.69274e-136 1.74788e-136 1.65218e-136 1.44949e-136 1.36297e-136 1.33792e-136 1.31866e-136 1.43492e-136 1.59231e-136 1.50051e-136 1.35241e-136 1.43745e-136 1.69921e-136 1.92516e-136 1.88939e-136 1.52023e-136 1.11152e-136 8.51929e-137 7.44027e-137 7.00765e-137 6.91634e-137 7.57771e-137 9.03094e-137 1.07863e-136 1.21172e-136 1.46457e-136 1.81584e-136 1.96088e-136 1.86369e-136 1.65031e-136 1.58607e-136 1.62186e-136 1.5353e-136 1.38284e-136 1.22615e-136 1.1681e-136 1.18078e-136 1.18519e-136 1.21366e-136 1.30563e-136 1.44588e-136 1.54099e-136 1.55751e-136 1.37835e-136 1.28262e-136 1.56516e-136 2.07132e-136 2.32236e-136 2.11022e-136 1.64524e-136 1.28215e-136 1.11479e-136 1.0043e-136 9.43609e-137 8.61334e-137 6.95313e-137 5.32837e-137 3.99355e-137 2.44954e-137 1.14546e-137 4.14839e-138 1.20389e-138 2.88923e-139 5.88262e-140 1.03695e-140 1.60829e-141 2.22361e-142 2.77005e-143 3.13704e-144 3.25396e-145 3.11131e-146 2.75744e-147 2.27608e-148 1.75717e-149 1.27351e-150 8.69339e-152 5.60615e-153 3.42442e-154 1.98613e-155 1.09617e-156 5.76855e-158 2.89985e-159 1.39488e-160 6.43022e-162 2.84492e-163 1.20962e-164 4.94881e-166 1.95044e-167 7.41332e-169 2.72009e-170 9.64397e-172 3.3069e-173 1.0976e-174 3.52914e-176 1.10008e-177 3.3267e-179 9.76641e-181 2.78524e-182 7.72077e-184 2.08151e-185 5.46079e-187 1.39482e-188 3.47042e-190 8.41504e-192 1.98947e-193 4.58788e-195 1.03244e-196 2.26813e-198 4.86616e-200 1.01996e-201 2.08932e-203 4.18256e-205 0 
0 1.70623e-287 1.892e-285 2.06672e-283 2.22394e-281 2.35724e-279 2.46088e-277 2.53013e-275 2.56166e-273 2.5538e-271 2.50666e-269 2.42217e-267 2.30394e-265 2.157e-263 1.98744e-261 1.80199e-259 1.6076e-257 1.41097e-255 1.21821e-253 1.03451e-251 8.63974e-250 7.09515e-248 5.72873e-246 4.54705e-244 3.54743e-242 2.71985e-240 2.04907e-238 1.51663e-236 1.10267e-234 7.87363e-233 5.52075e-231 3.80044e-229 2.56805e-227 1.70303e-225 1.10817e-223 7.074e-222 4.42901e-220 2.71917e-218 1.63665e-216 9.65524e-215 5.58154e-213 3.16096e-211 1.75325e-209 9.5217e-208 5.06182e-206 2.63327e-204 1.34014e-202 6.67009e-201 3.24566e-199 1.54353e-197 7.17159e-196 3.2542e-194 1.44157e-192 6.23182e-191 2.62787e-189 1.08047e-187 4.32954e-186 1.69e-184 6.42291e-183 2.37546e-181 8.54474e-180 2.98768e-178 1.01482e-176 3.34649e-175 1.07063e-173 3.32076e-172 9.97819e-171 2.90228e-169 8.16463e-168 2.21949e-166 5.82475e-165 1.47424e-163 3.59465e-162 8.43413e-161 1.90186e-159 4.11618e-158 8.53811e-157 1.69475e-155 3.21362e-154 5.81076e-153 9.9989e-152 1.63381e-150 2.52893e-149 3.69828e-148 5.0946e-147 6.58922e-146 7.97193e-145 8.98421e-144 9.38669e-143 9.04237e-142 7.98054e-141 6.4052e-140 4.634e-139 2.99024e-138 1.69896e-137 8.36495e-137 3.49829e-136 1.21159e-135 3.36642e-135 7.23254e-135 1.16761e-134 1.46051e-134 1.63689e-134 1.7213e-134 1.68813e-134 1.44671e-134 1.10887e-134 8.98491e-135 8.3414e-135 8.07725e-135 7.88589e-135 8.22524e-135 8.89453e-135 9.89076e-135 1.01082e-134 9.9357e-135 1.08745e-134 1.28197e-134 1.47376e-134 1.56629e-134 1.5468e-134 1.3496e-134 1.11213e-134 1.04945e-134 1.16599e-134 1.36893e-134 1.41095e-134 1.29203e-134 1.21356e-134 1.27209e-134 1.35689e-134 1.30277e-134 1.21173e-134 1.21792e-134 1.31693e-134 1.44905e-134 1.64116e-134 1.81439e-134 1.89524e-134 1.83278e-134 1.59515e-134 1.30706e-134 1.18133e-134 1.24971e-134 1.29002e-134 1.21942e-134 1.07036e-134 1.0062e-134 9.87543e-135 9.73832e-135 1.05952e-134 1.17488e-134 1.10762e-134 9.99044e-135 1.06154e-134 1.2541e-134 1.4203e-134 1.39373e-134 1.122e-134 8.20684e-135 6.28952e-135 5.48994e-135 5.16979e-135 5.10413e-135 5.59278e-135 6.66427e-135 7.95817e-135 8.94671e-135 1.08145e-134 1.33999e-134 1.44698e-134 1.37555e-134 1.21875e-134 1.17112e-134 1.19683e-134 1.133e-134 1.02051e-134 9.05065e-135 8.62054e-135 8.71133e-135 8.74485e-135 8.95667e-135 9.63617e-135 1.06702e-134 1.13728e-134 1.14921e-134 1.0178e-134 9.48092e-135 1.15633e-134 1.5287e-134 1.71341e-134 1.55729e-134 1.21485e-134 9.46916e-135 8.22847e-135 7.41218e-135 6.96174e-135 6.35259e-135 5.13034e-135 3.93244e-135 2.94593e-135 1.80802e-135 8.4688e-136 3.07408e-136 8.94481e-137 2.15281e-137 4.39634e-138 7.77348e-139 1.20944e-139 1.67751e-140 2.09652e-141 2.38203e-142 2.47896e-143 2.37815e-144 2.11472e-145 1.75143e-146 1.3567e-147 9.86613e-149 6.75797e-150 4.37301e-151 2.68039e-152 1.55998e-153 8.6397e-155 4.56252e-156 2.30163e-157 1.11103e-158 5.13983e-160 2.28209e-161 9.73773e-163 3.9982e-164 1.58145e-165 6.03255e-167 2.22148e-168 7.90485e-170 2.72046e-171 9.06266e-173 2.92467e-174 9.15028e-176 2.77738e-177 8.18411e-179 2.34273e-180 6.5185e-182 1.76401e-183 4.64535e-185 1.19104e-186 2.97472e-188 7.24071e-190 1.71842e-191 3.97813e-193 8.98694e-195 1.98199e-196 4.26889e-198 8.98278e-200 1.84732e-201 3.71272e-203 0 
0 1.81541e-285 2.00345e-283 2.17807e-281 2.33267e-279 2.46085e-277 2.557e-275 2.6167e-273 2.63701e-271 2.61677e-269 2.55666e-267 2.45919e-265 2.3285e-263 2.1701e-261 1.99048e-259 1.79664e-257 1.59566e-255 1.39426e-253 1.19844e-251 1.01323e-249 8.42486e-248 6.88842e-246 5.53759e-244 4.37629e-242 3.39947e-240 2.59521e-238 1.9468e-236 1.4348e-234 1.03875e-232 7.38588e-231 5.15698e-229 3.53516e-227 2.37884e-225 1.571e-223 1.01803e-221 6.47185e-220 4.03539e-218 2.4674e-216 1.47907e-214 8.69032e-213 5.00348e-211 2.82222e-209 1.55911e-207 8.43361e-206 4.4656e-204 2.31393e-202 1.17299e-200 5.81529e-199 2.81868e-197 1.33526e-195 6.17992e-194 2.79341e-192 1.2327e-190 5.30851e-189 2.23e-187 9.13402e-186 3.64627e-184 1.41794e-182 5.36872e-181 1.97817e-179 7.08919e-178 2.46956e-176 8.3574e-175 2.74582e-173 8.75252e-172 2.70485e-170 8.09802e-169 2.3469e-167 6.57845e-166 1.78189e-164 4.65961e-163 1.17515e-161 2.85522e-160 6.67557e-159 1.50002e-157 3.23512e-156 6.68716e-155 1.32274e-153 2.49955e-152 4.50404e-151 7.72382e-150 1.25776e-148 1.94025e-147 2.82782e-146 3.88239e-145 5.0046e-144 6.03467e-143 6.7785e-142 7.05893e-141 6.77786e-140 5.96263e-139 4.77032e-138 3.4403e-137 2.21306e-136 1.25356e-135 6.15367e-135 2.5662e-134 8.86409e-134 2.4571e-133 5.26931e-133 8.49887e-133 1.06329e-132 1.19184e-132 1.25331e-132 1.2289e-132 1.05333e-132 8.07786e-133 6.54453e-133 6.07176e-133 5.87878e-133 5.74173e-133 5.98902e-133 6.47667e-133 7.19831e-133 7.35707e-133 7.23542e-133 7.91866e-133 9.33285e-133 1.07278e-132 1.14022e-132 1.1259e-132 9.8272e-133 8.10443e-133 7.64857e-133 8.49512e-133 9.96559e-133 1.02704e-132 9.40922e-133 8.84042e-133 9.2638e-133 9.87667e-133 9.48488e-133 8.82518e-133 8.87004e-133 9.58975e-133 1.05537e-132 1.19518e-132 1.32124e-132 1.38003e-132 1.33443e-132 1.16167e-132 9.52444e-133 8.60971e-133 9.10102e-133 9.39163e-133 8.87792e-133 7.79648e-133 7.32731e-133 7.1902e-133 7.09403e-133 7.71696e-133 8.55104e-133 8.06489e-133 7.27975e-133 7.73278e-133 9.13014e-133 1.03359e-132 1.01412e-132 8.16826e-133 5.9771e-133 4.58019e-133 3.99575e-133 3.76207e-133 3.71551e-133 4.07165e-133 4.85093e-133 5.79178e-133 6.51599e-133 7.87696e-133 9.75397e-133 1.05325e-132 1.00148e-132 8.87805e-133 8.52975e-133 8.71177e-133 8.24752e-133 7.42885e-133 6.58974e-133 6.27541e-133 6.33951e-133 6.36458e-133 6.52002e-133 7.01526e-133 7.76733e-133 8.27931e-133 8.36421e-133 7.41358e-133 6.91286e-133 8.42687e-133 1.11289e-132 1.24697e-132 1.13363e-132 8.84863e-133 6.89823e-133 5.99102e-133 5.39614e-133 5.0664e-133 4.62153e-133 3.73393e-133 2.86275e-133 2.14358e-133 1.31636e-133 6.17605e-134 2.24695e-134 6.5553e-135 1.5822e-135 3.2407e-136 5.74768e-137 8.97061e-138 1.24819e-138 1.565e-139 1.78391e-140 1.8626e-141 1.79277e-142 1.59949e-143 1.32915e-144 1.03307e-145 7.53804e-147 5.18088e-148 3.36396e-149 2.06899e-150 1.20831e-151 6.71521e-153 3.55857e-154 1.80145e-155 8.72639e-157 4.05123e-158 1.80512e-159 7.72988e-161 3.18512e-162 1.26436e-163 4.84034e-165 1.78889e-166 6.38862e-168 2.20665e-169 7.37788e-171 2.3897e-172 7.50408e-174 2.28613e-175 6.76157e-177 1.94273e-178 5.42576e-180 1.47381e-181 3.89578e-183 1.00264e-184 2.51369e-186 6.14187e-188 1.46322e-189 3.40037e-191 7.71141e-193 1.70728e-194 3.69152e-196 7.79821e-198 1.61e-199 3.24851e-201 0 
0 1.90211e-283 2.08916e-281 2.26051e-279 2.40956e-277 2.53006e-275 2.61666e-273 2.66532e-271 2.67361e-269 2.64089e-267 2.56841e-265 2.45924e-263 2.31798e-261 2.15055e-259 1.96369e-257 1.76453e-255 1.56016e-253 1.3572e-251 1.16144e-249 9.77634e-248 8.09331e-246 6.58852e-244 5.27354e-242 4.14962e-240 3.20955e-238 2.43974e-236 1.82238e-234 1.3374e-232 9.64144e-231 6.82661e-229 4.74652e-227 3.24023e-225 2.17132e-223 1.42803e-221 9.21574e-220 5.83463e-218 3.62322e-216 2.20637e-214 1.31725e-212 7.70832e-211 4.42027e-209 2.48329e-207 1.36641e-205 7.36194e-204 3.88276e-202 2.00401e-200 1.0119e-198 4.9971e-197 2.41269e-195 1.13852e-193 5.24902e-192 2.36352e-190 1.039e-188 4.45735e-187 1.86534e-185 7.61155e-184 3.02707e-182 1.17274e-180 4.42375e-179 1.62392e-177 5.79812e-176 2.01236e-174 6.78513e-173 2.2211e-171 7.0541e-170 2.17206e-168 6.4794e-167 1.87104e-165 5.22579e-164 1.41044e-162 3.67515e-161 9.23584e-160 2.23608e-158 5.20963e-157 1.16652e-155 2.50709e-154 5.16428e-153 1.01798e-151 1.91702e-150 3.44253e-149 5.88332e-148 9.54798e-147 1.46791e-145 2.13221e-144 2.91758e-143 3.74838e-142 4.50493e-141 5.04355e-140 5.23504e-139 5.01029e-138 4.39349e-137 3.50376e-136 2.51892e-135 1.61534e-134 9.12206e-134 4.46476e-133 1.85662e-132 6.39611e-132 1.76883e-131 3.78644e-131 6.1016e-131 7.63501e-131 8.55926e-131 9.00077e-131 8.82362e-131 7.56414e-131 5.80397e-131 4.70169e-131 4.35916e-131 4.2201e-131 4.12331e-131 4.30107e-131 4.65151e-131 5.1671e-131 5.28141e-131 5.19685e-131 5.68731e-131 6.70138e-131 7.70214e-131 8.18691e-131 8.08308e-131 7.0578e-131 5.82511e-131 5.4981e-131 6.10465e-131 7.15553e-131 7.37363e-131 6.75848e-131 6.35182e-131 6.65391e-131 7.09076e-131 6.81101e-131 6.33949e-131 6.37155e-131 6.88758e-131 7.5812e-131 8.58488e-131 9.48971e-131 9.91126e-131 9.58295e-131 8.34422e-131 6.84543e-131 6.18902e-131 6.53714e-131 6.74378e-131 6.37506e-131 5.60121e-131 5.26281e-131 5.16347e-131 5.09701e-131 5.54369e-131 6.1385e-131 5.79193e-131 5.23192e-131 5.55584e-131 6.55596e-131 7.41881e-131 7.27815e-131 5.86517e-131 4.29353e-131 3.28972e-131 2.86839e-131 2.70015e-131 2.66761e-131 2.92363e-131 3.48265e-131 4.15743e-131 4.68069e-131 5.65878e-131 7.00292e-131 7.56168e-131 7.19153e-131 6.37876e-131 6.12754e-131 6.25458e-131 5.92148e-131 5.33382e-131 4.73226e-131 4.50568e-131 4.55028e-131 4.56876e-131 4.68125e-131 5.03727e-131 5.57677e-131 5.94475e-131 6.00437e-131 5.32607e-131 4.97139e-131 6.05708e-131 7.99106e-131 8.95089e-131 8.13929e-131 6.35685e-131 4.95651e-131 4.30225e-131 3.87465e-131 3.63657e-131 3.31615e-131 2.68039e-131 2.05549e-131 1.53841e-131 9.45277e-132 4.44227e-132 1.61984e-132 4.73814e-133 1.14685e-133 2.35596e-134 4.19129e-135 6.56191e-136 9.15938e-137 1.1521e-137 1.31752e-138 1.38013e-139 1.33277e-140 1.19303e-141 9.94695e-143 7.7571e-144 5.67928e-145 3.9166e-146 2.55173e-147 1.57481e-148 9.22864e-150 5.14656e-151 2.73677e-152 1.39026e-153 6.75809e-155 3.14847e-156 1.40782e-157 6.04992e-159 2.50176e-160 9.96637e-162 3.8291e-163 1.42025e-164 5.09042e-166 1.76463e-167 5.92146e-169 1.92498e-170 6.06695e-172 1.85512e-173 5.50707e-175 1.58816e-176 4.45204e-178 1.21384e-179 3.22065e-181 8.32012e-183 2.09381e-184 5.13539e-186 1.22811e-187 2.86493e-189 6.52212e-191 1.44955e-192 3.14641e-194 6.67256e-196 1.38299e-197 2.8014e-199 0 
0 1.96239e-281 2.14518e-279 2.31019e-277 2.45099e-275 2.56156e-273 2.63694e-271 2.67357e-269 2.66955e-267 2.62481e-265 2.54115e-263 2.42209e-261 2.27267e-259 2.09904e-257 1.90808e-255 1.70692e-253 1.50254e-251 1.3013e-249 1.10871e-247 9.29171e-246 7.65862e-244 6.20762e-242 4.94722e-240 3.87612e-238 2.98518e-236 2.25952e-234 1.6806e-232 1.22815e-230 8.81658e-229 6.21643e-227 4.30425e-225 2.92611e-223 1.95272e-221 1.27898e-219 8.21998e-218 5.18295e-216 3.20545e-214 1.94407e-212 1.15597e-210 6.73739e-209 3.84806e-207 2.15321e-205 1.18009e-203 6.33298e-202 3.32694e-200 1.71041e-198 8.60279e-197 4.23185e-195 2.0353e-193 9.56731e-192 4.39399e-190 1.97096e-188 8.63132e-187 3.68881e-185 1.53789e-183 6.25175e-182 2.47697e-180 9.56035e-179 3.59291e-177 1.31404e-175 4.67441e-174 1.61639e-172 5.43009e-171 1.77105e-169 5.60434e-168 1.71942e-166 5.11066e-165 1.4705e-163 4.0924e-162 1.10061e-160 2.85766e-159 7.15609e-158 1.72646e-156 4.00823e-155 8.9438e-154 1.91552e-152 3.93208e-151 7.7242e-150 1.4496e-148 2.59426e-147 4.41855e-146 7.14656e-145 1.09501e-143 1.58523e-142 2.16189e-141 2.7683e-140 3.31606e-139 3.70037e-138 3.82836e-137 3.65216e-136 3.19229e-135 2.53774e-134 1.81872e-133 1.16271e-132 6.54614e-132 3.19457e-131 1.32468e-130 4.55154e-130 1.25579e-129 2.68336e-129 4.32015e-129 5.40682e-129 6.06214e-129 6.37487e-129 6.24813e-129 5.35709e-129 4.11266e-129 3.33118e-129 3.08645e-129 2.98763e-129 2.92024e-129 3.04626e-129 3.29461e-129 3.65792e-129 3.73909e-129 3.68116e-129 4.02839e-129 4.74552e-129 5.45358e-129 5.79725e-129 5.72306e-129 4.99898e-129 4.1291e-129 3.89777e-129 4.32638e-129 5.06704e-129 5.22092e-129 4.78758e-129 4.50084e-129 4.71342e-129 5.02051e-129 4.82351e-129 4.49112e-129 4.51373e-129 4.87862e-129 5.37087e-129 6.08145e-129 6.72196e-129 7.02009e-129 6.78697e-129 5.91099e-129 4.85215e-129 4.3876e-129 4.63084e-129 4.77572e-129 4.51472e-129 3.96858e-129 3.72788e-129 3.65692e-129 3.61167e-129 3.92755e-129 4.3459e-129 4.10223e-129 3.7083e-129 3.9367e-129 4.64265e-129 5.25159e-129 5.15136e-129 4.15337e-129 3.04163e-129 2.33023e-129 2.03069e-129 1.91124e-129 1.88883e-129 2.07033e-129 2.46581e-129 2.94312e-129 3.31594e-129 4.00919e-129 4.95848e-129 5.35399e-129 5.093e-129 4.51985e-129 4.34117e-129 4.42855e-129 4.19283e-129 3.7768e-129 3.35147e-129 3.19041e-129 3.22098e-129 3.2344e-129 3.31469e-129 3.56709e-129 3.94879e-129 4.20962e-129 4.25092e-129 3.77361e-129 3.52587e-129 4.29369e-129 5.65885e-129 6.33651e-129 5.76336e-129 4.50379e-129 3.51223e-129 3.04692e-129 2.74378e-129 2.57426e-129 2.34666e-129 1.89756e-129 1.45551e-129 1.08886e-129 6.69436e-130 3.15109e-130 1.15161e-130 3.37733e-131 8.19773e-132 1.68903e-132 3.01395e-133 4.73334e-134 6.62785e-135 8.36339e-136 9.59513e-137 1.00839e-137 9.7698e-139 8.77435e-140 7.34002e-141 5.74324e-142 4.21899e-143 2.91938e-144 1.90848e-145 1.18184e-146 6.94953e-148 3.88891e-149 2.07514e-150 1.05781e-151 5.16e-153 2.41236e-154 1.08247e-155 4.66817e-157 1.93721e-158 7.74482e-160 2.9862e-161 1.11158e-162 3.99844e-164 1.39109e-165 4.68494e-167 1.52855e-168 4.83514e-170 1.48389e-171 4.42127e-173 1.27975e-174 3.6008e-176 9.85413e-178 2.62435e-179 6.80513e-181 1.71901e-182 4.23211e-184 1.01594e-185 2.37903e-187 5.4367e-189 1.21296e-190 2.64304e-192 5.62679e-194 1.17078e-195 2.38081e-197 0 