# vtk DataFile Version 3.0
Gray-Scott Simulation Output
ASCII
DATASET STRUCTURED_POINTS
DIMENSIONS 256 256 1
SPACING 1.0 1.0 1.0
ORIGIN 0 0 0
POINT_DATA 65536
SCALARS u double
LOOKUP_TABLE default
0 0 0 0 0 0 0 0 0 0 0 0 0 0 0 0 0 0 0 0 0 0 0 0 0 0 0 0 0 0 0 0 0 0 0 0 0 0 0 0 0 0 0 0 0 0 0 0 0 0 0 0 0 0 0 0 0 0 0 0 0 0 0 0 0 0 0 0 0 0 0 0 0 0 0 0 0 0 0 0 0 0 0 0 0 0 0 0 0 0 0 0 0 0 0 0 0 0 0 0 0 0 0 0 0 0 0 0 0 0 0 0 0 0 0 0 0 0 0 0 0 0 0 0 0 0 0 0 0 0 0 0 0 0 0 0 0 0 0 0 0 0 0 0 0 0 0 0 0 0 0 0 0 0 0 0 0 0 0 0 0 0 0 0 0 0 0 0 0 0 0 0 0 0 0 0 0 0 0 0 0 0 0 0 0 0 0 0 0 0 0 0 0 0 0 0 0 0 0 0 0 0 0 0 0 0 0 0 0 0 0 0 0 0 0 0 0 0 0 0 0 0 0 0 0 0 0 0 0 0 0 0 0 0 0 0 0 0 0 0 0 0 0 0 0 0 0 0 0 0 0 0 0 0 0 0 
0 7.66441e-81 2.97657e-80 1.07211e-79 3.81037e-79 1.34214e-78 4.68646e-78 1.62216e-77 5.56569e-77 1.89274e-76 6.3794e-76 2.13088e-75 7.0534e-75 2.3135e-74 7.51865e-74 2.42092e-73 7.72257e-73 2.44034e-72 7.63864e-72 2.36824e-71 7.27191e-71 2.21131e-70 6.65881e-70 1.98543e-69 5.86127e-69 1.71305e-68 4.9563e-68 1.41944e-67 4.02355e-67 1.12876e-66 3.1337e-66 8.60869e-66 2.33992e-65 6.29237e-65 1.67392e-64 4.40478e-64 1.14641e-63 2.95085e-63 7.51101e-63 1.89041e-62 4.70407e-62 1.15721e-61 2.81403e-61 6.76358e-61 1.60662e-60 3.77133e-60 8.74731e-60 2.00451e-59 4.53783e-59 1.01473e-58 2.24111e-58 4.88814e-58 1.05279e-57 2.23879e-57 4.70007e-57 9.74025e-57 1.99233e-56 4.02186e-56 8.01159e-56 1.57467e-55 3.05341e-55 5.84065e-55 1.10196e-54 2.05046e-54 3.76242e-54 6.80716e-54 1.21423e-53 2.13512e-53 3.7007e-53 6.32181e-53 1.06426e-52 1.76548e-52 2.88563e-52 4.64667e-52 7.37101e-52 1.15175e-51 1.77257e-51 2.68674e-51 4.01049e-51 5.89513e-51 8.53274e-51 1.21609e-50 1.7065e-50 2.35777e-50 3.20738e-50 4.29587e-50 5.66515e-50 7.35612e-50 9.40559e-50 1.18429e-49 1.46861e-49 1.79388e-49 2.15866e-49 2.55956e-49 2.99117e-49 3.44615e-49 3.91553e-49 4.38914e-49 4.85624e-49 5.30618e-49 5.72911e-49 6.11666e-49 6.46251e-49 6.76273e-49 7.01596e-49 7.22337e-49 7.38838e-49 7.51618e-49 7.61324e-49 7.68661e-49 7.74338e-49 7.79012e-49 7.83245e-49 7.87481e-49 7.92033e-49 7.97082e-49 8.027e-49 8.08862e-49 8.15483e-49 8.22438e-49 8.29589e-49 8.36808e-49 8.43985e-49 8.51038e-49 8.57913e-49 8.64575e-49 8.71002e-49 8.77174e-49 8.8306e-49 8.88607e-49 8.93739e-49 8.98351e-49 9.02308e-49 9.05462e-49 9.07653e-49 9.08728e-49 9.08553e-49 9.07028e-49 9.04101e-49 8.9977e-49 8.94088e-49 8.8716e-49 8.7913e-49 8.70172e-49 8.60473e-49 8.50212e-49 8.39552e-49 8.28627e-49 8.17534e-49 8.06337e-49 7.95078e-49 7.83781e-49 7.72478e-49 7.61219e-49 7.5009e-49 7.39222e-49 7.28795e-49 7.19033e-49 7.10188e-49 7.02526e-49 6.96296e-49 6.91703e-49 6.88888e-49 6.87906e-49 6.88711e-49 6.91159e-49 6.95017e-49 6.99978e-49 7.05691e-49 7.11794e-49 7.17938e-49 7.23824e-49 7.2922e-49 7.33976e-49 7.38023e-49 7.4137e-49 7.44084e-49 7.46265e-49 7.48019e-49 7.49432e-49 7.50539e-49 7.51305e-49 7.51616e-49 7.5127e-49 7.49981e-49 7.47399e-49 7.43124e-49 7.36736e-49 7.27822e-49 7.16008e-49 7.00984e-49 6.8253e-49 6.60534e-49 6.35007e-49 6.06085e-49 5.7403e-49 5.39223e-49 5.02145e-49 4.63363e-49 4.23502e-49 3.83221e-49 3.43182e-49 3.04026e-49 2.66345e-49 2.30655e-49 1.97386e-49 1.66863e-49 1.39302e-49 1.1481e-49 9.33915e-50 7.49604e-50 5.93545e-50 4.63535e-50 3.56975e-50 2.71051e-50 2.02889e-50 1.49696e-50 1.08858e-50 7.80147e-51 5.50973e-51 3.83443e-51 2.62952e-51 1.77684e-51 1.18309e-51 7.7622e-52 5.01836e-52 3.19714e-52 2.00724e-52 1.24194e-52 7.5733e-53 4.5518e-53 2.69664e-53 1.57485e-53 9.06699e-54 5.14676e-54 2.88064e-54 1.58989e-54 8.65381e-55 4.64573e-55 2.46008e-55 1.2851e-55 6.62304e-56 3.3679e-56 1.69e-56 8.36921e-57 4.0907e-57 1.97366e-57 9.40055e-58 4.42064e-58 2.0526e-58 9.41036e-59 4.25762e-59 1.89477e-59 8.13982e-60 3.00152e-60 0 
0 2.97229e-80 1.15448e-79 4.1589e-79 1.47835e-78 5.20811e-78 1.81888e-77 6.29696e-77 2.1609e-76 7.35002e-76 2.47778e-75 8.27806e-75 2.74067e-74 8.99122e-74 2.92269e-73 9.41284e-73 3.00331e-72 9.4927e-72 2.97207e-71 9.21668e-71 2.83077e-70 8.61028e-70 2.59345e-69 7.73486e-69 2.28406e-68 6.67741e-68 1.93249e-67 5.53609e-67 1.56974e-66 4.40506e-66 1.22332e-65 3.36169e-65 9.14033e-65 2.45876e-64 6.54308e-64 1.72234e-63 4.48422e-63 1.15463e-62 2.94003e-62 7.40228e-62 1.84266e-61 4.53467e-61 1.10313e-60 2.65241e-60 6.30299e-60 1.48013e-59 3.43441e-59 7.87335e-59 1.7831e-58 3.98892e-58 8.81351e-58 1.92314e-57 4.14373e-57 8.81545e-57 1.85148e-56 3.83857e-56 7.85497e-56 1.58634e-55 3.16135e-55 6.21621e-55 1.20589e-54 2.30762e-54 4.35562e-54 8.108e-54 1.48836e-53 2.6939e-53 4.80715e-53 8.45626e-53 1.46624e-52 2.50567e-52 4.21977e-52 7.00252e-52 1.14493e-51 1.84425e-51 2.92643e-51 4.57401e-51 7.04142e-51 1.06757e-50 1.59393e-50 2.34347e-50 3.39264e-50 4.83602e-50 6.78723e-50 9.37869e-50 1.27594e-49 1.70907e-49 2.25392e-49 2.92671e-49 3.74205e-49 4.7115e-49 5.84216e-49 7.13527e-49 8.58496e-49 1.01776e-48 1.18913e-48 1.36969e-48 1.55583e-48 1.7435e-48 1.92842e-48 2.10635e-48 2.27339e-48 2.42622e-48 2.56234e-48 2.68023e-48 2.77938e-48 2.86028e-48 2.92433e-48 2.97363e-48 3.01077e-48 3.03858e-48 3.05989e-48 3.0773e-48 3.09307e-48 3.10895e-48 3.12617e-48 3.14545e-48 3.16706e-48 3.19091e-48 3.21663e-48 3.24372e-48 3.27164e-48 3.29985e-48 3.32794e-48 3.35556e-48 3.38249e-48 3.4086e-48 3.43381e-48 3.45801e-48 3.4811e-48 3.50288e-48 3.52303e-48 3.54114e-48 3.55669e-48 3.56909e-48 3.57771e-48 3.58196e-48 3.58129e-48 3.57532e-48 3.56385e-48 3.54685e-48 3.52455e-48 3.49736e-48 3.46584e-48 3.43068e-48 3.39261e-48 3.35234e-48 3.31052e-48 3.26765e-48 3.22414e-48 3.18022e-48 3.13605e-48 3.09173e-48 3.04738e-48 3.0032e-48 2.95952e-48 2.91685e-48 2.8759e-48 2.83755e-48 2.8028e-48 2.77269e-48 2.74821e-48 2.73016e-48 2.71911e-48 2.71527e-48 2.71846e-48 2.72811e-48 2.74331e-48 2.76284e-48 2.78533e-48 2.80934e-48 2.83351e-48 2.85665e-48 2.87785e-48 2.89653e-48 2.91241e-48 2.92554e-48 2.93619e-48 2.94474e-48 2.95164e-48 2.95721e-48 2.96161e-48 2.9647e-48 2.96603e-48 2.96482e-48 2.95994e-48 2.95001e-48 2.93345e-48 2.90861e-48 2.87386e-48 2.82771e-48 2.76893e-48 2.69664e-48 2.61039e-48 2.51019e-48 2.39657e-48 2.27054e-48 2.13357e-48 1.98756e-48 1.83472e-48 1.67752e-48 1.51853e-48 1.36039e-48 1.20563e-48 1.05659e-48 9.15344e-49 7.83589e-49 6.62636e-49 5.53357e-49 4.56196e-49 3.71188e-49 2.98003e-49 2.36011e-49 1.84348e-49 1.41991e-49 1.07826e-49 8.07181e-50 5.95592e-50 4.33126e-50 3.10408e-50 2.19218e-50 1.52555e-50 1.04609e-50 7.06803e-51 4.70558e-51 3.08687e-51 1.99537e-51 1.27099e-51 7.97799e-52 4.93512e-52 3.00871e-52 1.80788e-52 1.07076e-52 6.25156e-53 3.59822e-53 2.04187e-53 1.14248e-53 6.30358e-54 3.42995e-54 1.84073e-54 9.74404e-55 5.08835e-55 2.62149e-55 1.3326e-55 6.68455e-56 3.30914e-56 1.61686e-56 7.79817e-57 3.71295e-57 1.7454e-57 8.10139e-58 3.71285e-58 1.67925e-58 7.4706e-59 3.20832e-59 1.18277e-59 0 
0 1.06879e-79 4.15198e-79 1.49598e-78 5.31872e-78 1.87411e-77 6.54647e-77 2.26686e-76 7.78078e-76 2.64711e-75 8.92575e-75 2.98271e-74 9.87742e-74 3.24124e-73 1.05387e-72 3.39496e-72 1.0835e-71 3.42559e-71 1.07282e-70 3.32785e-70 1.0224e-69 3.11073e-69 9.37249e-69 2.79618e-68 8.25958e-68 2.41546e-67 6.99286e-67 2.00395e-66 5.68409e-66 1.59566e-65 4.43287e-65 1.2186e-64 3.31458e-64 8.91967e-64 2.37456e-63 6.25305e-63 1.62867e-62 4.19537e-62 1.0687e-61 2.69188e-61 6.70379e-61 1.65048e-60 4.01682e-60 9.66256e-60 2.29718e-59 5.39692e-59 1.25285e-58 2.8735e-58 6.5108e-58 1.4572e-57 3.22124e-57 7.03227e-57 1.51596e-56 3.22667e-56 6.78024e-56 1.4064e-55 2.87938e-55 5.81789e-55 1.16e-54 2.28205e-54 4.42915e-54 8.4799e-54 1.60136e-53 2.98237e-53 5.47724e-53 9.91836e-53 1.77071e-52 3.11627e-52 5.40575e-52 9.24193e-52 1.55708e-51 2.58496e-51 4.22813e-51 6.81324e-51 1.08151e-50 1.69097e-50 2.60399e-50 3.94915e-50 5.89792e-50 8.67357e-50 1.25596e-49 1.79066e-49 2.51358e-49 3.47379e-49 4.72651e-49 6.33147e-49 8.35031e-49 1.0843e-48 1.38633e-48 1.74539e-48 2.16404e-48 2.64268e-48 3.17907e-48 3.76805e-48 4.40147e-48 5.06835e-48 5.75533e-48 6.44732e-48 7.12843e-48 7.78294e-48 8.39643e-48 8.95671e-48 9.45462e-48 9.88462e-48 1.0245e-47 1.05377e-47 1.07681e-47 1.0944e-47 1.10753e-47 1.11723e-47 1.12457e-47 1.13051e-47 1.13589e-47 1.14135e-47 1.14735e-47 1.15415e-47 1.16184e-47 1.17039e-47 1.17965e-47 1.18944e-47 1.19955e-47 1.20979e-47 1.22e-47 1.23004e-47 1.23984e-47 1.24935e-47 1.25852e-47 1.26734e-47 1.27576e-47 1.2837e-47 1.29105e-47 1.29766e-47 1.30334e-47 1.30787e-47 1.31103e-47 1.31258e-47 1.31235e-47 1.31018e-47 1.306e-47 1.29981e-47 1.29167e-47 1.28176e-47 1.27026e-47 1.25744e-47 1.24356e-47 1.22888e-47 1.21363e-47 1.19801e-47 1.18215e-47 1.16615e-47 1.15005e-47 1.1339e-47 1.11774e-47 1.10163e-47 1.0857e-47 1.07013e-47 1.05519e-47 1.04119e-47 1.02851e-47 1.01751e-47 1.00857e-47 1.00199e-47 9.97955e-48 9.96558e-48 9.97733e-48 1.00127e-47 1.00684e-47 1.01399e-47 1.02221e-47 1.03099e-47 1.03983e-47 1.04828e-47 1.05603e-47 1.06284e-47 1.06863e-47 1.07342e-47 1.07729e-47 1.08041e-47 1.08293e-47 1.08498e-47 1.0866e-47 1.08776e-47 1.0883e-47 1.08792e-47 1.08622e-47 1.08268e-47 1.07675e-47 1.06779e-47 1.05522e-47 1.03849e-47 1.01714e-47 9.9085e-48 9.59437e-48 9.22906e-48 8.81437e-48 8.35394e-48 7.85309e-48 7.31868e-48 6.75877e-48 6.18234e-48 5.5989e-48 5.01806e-48 4.44916e-48 3.90085e-48 3.38079e-48 2.89533e-48 2.44935e-48 2.04615e-48 1.68744e-48 1.37342e-48 1.10293e-48 8.73704e-49 6.82591e-49 5.25844e-49 3.99376e-49 2.99002e-49 2.20639e-49 1.60459e-49 1.14996e-49 8.1211e-50 5.65118e-50 3.87475e-50 2.61771e-50 1.74251e-50 1.14289e-50 7.3863e-51 4.70383e-51 2.95188e-51 1.82554e-51 1.11263e-51 6.68365e-52 3.95734e-52 2.30971e-52 1.32895e-52 7.53873e-53 4.21659e-53 2.32563e-53 1.26496e-53 6.78594e-54 3.59077e-54 1.87436e-54 9.65268e-55 4.90479e-55 2.45933e-55 1.21697e-55 5.94371e-56 2.86547e-56 1.36377e-56 6.40821e-57 2.97317e-57 1.36203e-57 6.15769e-58 2.73833e-58 1.17557e-58 4.33259e-59 0 
0 3.79199e-79 1.47334e-78 5.30954e-78 1.8881e-77 6.65433e-77 2.32492e-76 8.05231e-76 2.76449e-75 9.4073e-75 3.17278e-74 1.06051e-73 3.5128e-73 1.15301e-72 3.74991e-72 1.20833e-71 3.85745e-71 1.21992e-70 3.82161e-70 1.18581e-69 3.64421e-69 1.10912e-68 3.3428e-68 9.97614e-68 2.94781e-67 8.62362e-67 2.49744e-66 7.15949e-66 2.03148e-65 5.70495e-65 1.58548e-64 4.36018e-64 1.18643e-63 3.19401e-63 8.50644e-63 2.24097e-62 5.83932e-62 1.50482e-61 3.83496e-61 9.66385e-61 2.40775e-60 5.93061e-60 1.44402e-59 3.47524e-59 8.26598e-59 1.94292e-58 4.51253e-58 1.03549e-57 2.34738e-57 5.25638e-57 1.16255e-56 2.53924e-56 5.4767e-56 1.1663e-55 2.45202e-55 5.08878e-55 1.04239e-54 2.10728e-54 4.20379e-54 8.27436e-54 1.60677e-53 3.07786e-53 5.81524e-53 1.08358e-52 1.99104e-52 3.60722e-52 6.44306e-52 1.13446e-51 1.96885e-51 3.36758e-51 5.67621e-51 9.42733e-51 1.54264e-50 2.48681e-50 3.94897e-50 6.17658e-50 9.51478e-50 1.44345e-49 2.15637e-49 3.17205e-49 4.59433e-49 6.55165e-49 9.19834e-49 1.27141e-48 1.73012e-48 2.3178e-48 3.05699e-48 3.9696e-48 5.07522e-48 6.38929e-48 7.92104e-48 9.67166e-48 1.16326e-47 1.37848e-47 1.60979e-47 1.85314e-47 2.10362e-47 2.35567e-47 2.60347e-47 2.84126e-47 3.06379e-47 3.2666e-47 3.4464e-47 3.6012e-47 3.73044e-47 3.83489e-47 3.91656e-47 3.97838e-47 4.02396e-47 4.05718e-47 4.08191e-47 4.10171e-47 4.11962e-47 4.13801e-47 4.15851e-47 4.18207e-47 4.20903e-47 4.23921e-47 4.27211e-47 4.30701e-47 4.34317e-47 4.37984e-47 4.41643e-47 4.45248e-47 4.48769e-47 4.52185e-47 4.55485e-47 4.58657e-47 4.61686e-47 4.64544e-47 4.67192e-47 4.69573e-47 4.71621e-47 4.73256e-47 4.74396e-47 4.7496e-47 4.74879e-47 4.74101e-47 4.72598e-47 4.70369e-47 4.67442e-47 4.63871e-47 4.59733e-47 4.55116e-47 4.50119e-47 4.44834e-47 4.39347e-47 4.33725e-47 4.28019e-47 4.22262e-47 4.16472e-47 4.10661e-47 4.04844e-47 3.99046e-47 3.93311e-47 3.87705e-47 3.82321e-47 3.77277e-47 3.72704e-47 3.68741e-47 3.65517e-47 3.63143e-47 3.61691e-47 3.6119e-47 3.61617e-47 3.62898e-47 3.64911e-47 3.67494e-47 3.70467e-47 3.73638e-47 3.76826e-47 3.79876e-47 3.82667e-47 3.85122e-47 3.87208e-47 3.88929e-47 3.90323e-47 3.91445e-47 3.92354e-47 3.93094e-47 3.93689e-47 3.94121e-47 3.94333e-47 3.94221e-47 3.93638e-47 3.92401e-47 3.90301e-47 3.87117e-47 3.82633e-47 3.76649e-47 3.68998e-47 3.5956e-47 3.48269e-47 3.35122e-47 3.20182e-47 3.03576e-47 2.85494e-47 2.66182e-47 2.45928e-47 2.25058e-47 2.03915e-47 1.82846e-47 1.62192e-47 1.42269e-47 1.23356e-47 1.05688e-47 8.94444e-48 7.47489e-48 6.16663e-48 5.02066e-48 4.03302e-48 3.19563e-48 2.49716e-48 1.92407e-48 1.46153e-48 1.09433e-48 8.07583e-49 5.87333e-49 4.20925e-49 2.9725e-49 2.06832e-49 1.41802e-49 9.57867e-50 6.37516e-50 4.18066e-50 2.70132e-50 1.71989e-50 1.07904e-50 6.67132e-51 4.06487e-51 2.44102e-51 1.44484e-51 8.42996e-52 4.84867e-52 2.74948e-52 1.53727e-52 8.47536e-53 4.60808e-53 2.47103e-53 1.307e-53 6.81958e-54 3.5105e-54 1.78302e-54 8.93641e-55 4.42016e-55 2.15787e-55 1.03986e-55 4.94686e-56 2.32346e-56 1.07753e-56 4.93411e-57 2.22973e-57 9.91147e-58 4.25337e-58 1.56713e-58 0 
0 1.33331e-78 5.18132e-78 1.86758e-77 6.6426e-77 2.34158e-76 8.18291e-76 2.83477e-75 9.73451e-75 3.31335e-74 1.11776e-73 3.73705e-73 1.23817e-72 4.06514e-72 1.32246e-71 4.26253e-71 1.36115e-70 4.30589e-70 1.3493e-69 4.18802e-69 1.28746e-68 3.91967e-68 1.18174e-67 3.52793e-67 1.04282e-66 3.05175e-66 8.84119e-66 2.53546e-65 7.19697e-65 2.02187e-64 5.62125e-64 1.54649e-63 4.20981e-63 1.1338e-62 3.02085e-62 7.96165e-62 2.07547e-61 5.35095e-61 1.36428e-60 3.43947e-60 8.57341e-60 2.11274e-59 5.14668e-59 1.23923e-58 2.94899e-58 6.93504e-58 1.61151e-57 3.69981e-57 8.39151e-57 1.88005e-56 4.16025e-56 9.09163e-56 1.96195e-55 4.18032e-55 8.79341e-55 1.82592e-54 3.74224e-54 7.56935e-54 1.51082e-53 2.97536e-53 5.78086e-53 1.10795e-52 2.09445e-52 3.90474e-52 7.17855e-52 1.30123e-51 2.32537e-51 4.09642e-51 7.1128e-51 1.21717e-50 2.05255e-50 3.41051e-50 5.58321e-50 9.00416e-50 1.4304e-49 2.23813e-49 3.44897e-49 5.23402e-49 7.82153e-49 1.15088e-48 1.66733e-48 2.37819e-48 3.33955e-48 4.61672e-48 6.28312e-48 8.41811e-48 1.11034e-47 1.44183e-47 1.84337e-47 2.3205e-47 2.87651e-47 3.51172e-47 4.22295e-47 5.00308e-47 5.84103e-47 6.72194e-47 7.62782e-47 8.53844e-47 9.43257e-47 1.02894e-46 1.10897e-46 1.18176e-46 1.24612e-46 1.30136e-46 1.34728e-46 1.38419e-46 1.41284e-46 1.43431e-46 1.44994e-46 1.46113e-46 1.46931e-46 1.47577e-46 1.48161e-46 1.48768e-46 1.49458e-46 1.50265e-46 1.51199e-46 1.52254e-46 1.53411e-46 1.54644e-46 1.55924e-46 1.57226e-46 1.58527e-46 1.5981e-46 1.61063e-46 1.6228e-46 1.63457e-46 1.64588e-46 1.65668e-46 1.66689e-46 1.67634e-46 1.68485e-46 1.69217e-46 1.69802e-46 1.7021e-46 1.70413e-46 1.70385e-46 1.70109e-46 1.69573e-46 1.68778e-46 1.67733e-46 1.66458e-46 1.64981e-46 1.63333e-46 1.61549e-46 1.59663e-46 1.57705e-46 1.557e-46 1.53664e-46 1.51611e-46 1.49545e-46 1.47473e-46 1.45398e-46 1.43329e-46 1.41281e-46 1.39279e-46 1.37356e-46 1.35554e-46 1.3392e-46 1.32503e-46 1.31351e-46 1.30502e-46 1.29983e-46 1.29805e-46 1.2996e-46 1.30419e-46 1.31141e-46 1.32067e-46 1.33132e-46 1.34267e-46 1.35408e-46 1.36499e-46 1.37497e-46 1.38374e-46 1.39118e-46 1.39732e-46 1.40229e-46 1.40629e-46 1.40954e-46 1.4122e-46 1.41436e-46 1.41595e-46 1.41678e-46 1.41648e-46 1.41451e-46 1.41022e-46 1.40287e-46 1.39167e-46 1.37582e-46 1.35461e-46 1.32744e-46 1.29387e-46 1.25364e-46 1.20675e-46 1.15339e-46 1.09402e-46 1.02931e-46 9.60115e-47 8.8748e-47 8.12558e-47 7.3658e-47 6.608e-47 5.86442e-47 5.14649e-47 4.4644e-47 3.82666e-47 3.23989e-47 2.70865e-47 2.2354e-47 1.82058e-47 1.46288e-47 1.15944e-47 9.06225e-48 6.98379e-48 5.3057e-48 3.9731e-48 2.93224e-48 2.13261e-48 1.52838e-48 1.07928e-48 7.50932e-49 5.14778e-49 3.47685e-49 2.31367e-49 1.51695e-49 9.79964e-50 6.23779e-50 3.91249e-50 2.41826e-50 1.47301e-50 8.84281e-51 5.23227e-51 3.05169e-51 1.7546e-51 9.94577e-52 5.55859e-52 3.06336e-52 1.66487e-52 8.92388e-53 4.71807e-53 2.46069e-53 1.26613e-53 6.42792e-54 3.22021e-54 1.59207e-54 7.76882e-55 3.74203e-55 1.77937e-55 8.35362e-56 3.87234e-56 1.77238e-56 8.00585e-57 3.55718e-57 1.5259e-57 5.6204e-58 0 
0 4.64727e-78 1.80627e-77 6.51195e-77 2.31666e-76 8.16822e-76 2.85512e-75 9.89317e-75 3.39809e-74 1.15689e-73 3.90377e-73 1.3055e-72 4.32658e-72 1.42088e-71 4.62363e-71 1.49071e-70 4.76166e-70 1.50677e-69 4.72307e-69 1.46643e-68 4.50949e-68 1.37337e-67 4.14197e-67 1.23696e-66 3.65758e-66 1.07076e-65 3.10323e-65 8.90274e-65 2.52804e-64 7.10493e-64 1.97612e-63 5.43883e-63 1.48115e-62 3.99078e-62 1.06375e-61 2.80481e-61 7.31498e-61 1.8868e-60 4.81281e-60 1.21392e-59 3.02734e-59 7.4639e-59 1.81911e-58 4.38229e-58 1.04338e-57 2.45495e-57 5.70757e-57 1.31107e-56 2.9752e-56 6.66927e-56 1.4766e-55 3.22866e-55 6.97118e-55 1.48617e-54 3.12793e-54 6.49864e-54 1.33265e-53 2.69702e-53 5.38617e-53 1.06133e-52 2.06322e-52 3.95652e-52 7.48346e-52 1.39593e-51 2.56769e-51 4.65683e-51 8.32642e-51 1.46756e-50 2.54948e-50 4.36494e-50 7.36426e-50 1.22421e-49 2.00501e-49 3.23493e-49 5.14112e-49 8.04741e-49 1.24057e-48 1.88329e-48 2.81523e-48 4.1436e-48 6.00459e-48 8.56663e-48 1.2032e-47 1.66363e-47 2.26441e-47 3.03413e-47 4.0022e-47 5.19714e-47 6.64432e-47 8.36354e-47 1.03664e-46 1.26536e-46 1.52134e-46 1.80195e-46 2.10316e-46 2.41956e-46 2.74461e-46 3.07101e-46 3.39108e-46 3.6973e-46 3.98282e-46 4.2419e-46 4.47035e-46 4.66571e-46 4.82738e-46 4.95657e-46 5.05605e-46 5.12979e-46 5.18263e-46 5.21973e-46 5.24621e-46 5.26674e-46 5.2853e-46 5.30494e-46 5.32779e-46 5.35502e-46 5.38703e-46 5.42354e-46 5.46385e-46 5.50701e-46 5.55197e-46 5.59778e-46 5.64362e-46 5.68887e-46 5.73313e-46 5.77613e-46 5.81771e-46 5.85772e-46 5.89594e-46 5.93205e-46 5.96553e-46 5.99569e-46 6.02164e-46 6.0424e-46 6.0569e-46 6.06413e-46 6.0632e-46 6.05345e-46 6.03451e-46 6.00637e-46 5.9694e-46 5.92428e-46 5.87197e-46 5.81363e-46 5.75048e-46 5.68374e-46 5.61445e-46 5.5435e-46 5.4715e-46 5.39886e-46 5.32581e-46 5.25249e-46 5.17907e-46 5.10585e-46 5.03337e-46 4.96248e-46 4.89436e-46 4.83049e-46 4.77256e-46 4.72234e-46 4.68149e-46 4.65141e-46 4.63304e-46 4.62677e-46 4.63229e-46 4.64867e-46 4.67433e-46 4.70724e-46 4.74507e-46 4.78539e-46 4.82589e-46 4.86459e-46 4.89996e-46 4.93102e-46 4.95736e-46 4.97907e-46 4.99664e-46 5.01081e-46 5.02233e-46 5.03182e-46 5.03957e-46 5.04541e-46 5.04862e-46 5.04789e-46 5.04135e-46 5.02668e-46 5.00122e-46 4.96214e-46 4.90665e-46 4.83217e-46 4.73654e-46 4.61815e-46 4.4761e-46 4.31026e-46 4.12133e-46 3.91087e-46 3.6812e-46 3.43538e-46 3.17705e-46 2.9103e-46 2.63952e-46 2.36917e-46 2.10364e-46 1.84703e-46 1.603e-46 1.37465e-46 1.16437e-46 9.73847e-47 8.03999e-47 6.55029e-47 5.26493e-47 4.17396e-47 3.26314e-47 2.51521e-47 1.91113e-47 1.43128e-47 1.0564e-47 7.68343e-48 5.50648e-48 3.88829e-48 2.70516e-48 1.85424e-48 1.25219e-48 8.3313e-49 5.46132e-49 3.52726e-49 2.24465e-49 1.40751e-49 8.69705e-50 5.29585e-50 3.17815e-50 1.87984e-50 1.096e-50 6.29911e-51 3.56917e-51 1.99396e-51 1.09841e-51 5.96707e-52 3.19701e-52 1.68951e-52 8.80762e-53 4.52981e-53 2.29866e-53 1.15103e-53 5.68804e-54 2.77429e-54 1.33567e-54 6.34827e-55 2.97894e-55 1.38025e-55 6.31452e-56 2.85096e-56 1.26618e-56 5.42923e-57 1.99913e-57 0 
0 1.60565e-77 6.24187e-77 2.25078e-76 8.00901e-76 2.82451e-75 9.87507e-75 3.42259e-74 1.17587e-73 4.00432e-73 1.35155e-72 4.52105e-72 1.49874e-71 4.92332e-71 1.60254e-70 5.1683e-70 1.65137e-69 5.22715e-69 1.63901e-68 5.09049e-68 1.56592e-67 4.77062e-67 1.43928e-66 4.29979e-66 1.27188e-65 3.72482e-65 1.07992e-64 3.09934e-64 8.80444e-64 2.47544e-63 6.88786e-63 1.89653e-62 5.16703e-62 1.3928e-61 3.71418e-61 9.79773e-61 2.55644e-60 6.59707e-60 1.68357e-59 4.2485e-59 1.06003e-58 2.61482e-58 6.37612e-58 1.53681e-57 3.66092e-57 8.61825e-57 2.00475e-56 4.60755e-56 1.04616e-55 2.3464e-55 5.19791e-55 1.13719e-54 2.45676e-54 5.24049e-54 1.10359e-53 2.29417e-53 4.70727e-53 9.53213e-53 1.90475e-52 3.75542e-52 7.30473e-52 1.40159e-51 2.65252e-51 4.95067e-51 9.11145e-51 1.6534e-50 2.95789e-50 5.21617e-50 9.06643e-50 1.55306e-49 2.62153e-49 4.36008e-49 7.14427e-49 1.15319e-48 1.8335e-48 2.87116e-48 4.42783e-48 6.72426e-48 1.00551e-47 1.48041e-47 2.14589e-47 3.06224e-47 4.30188e-47 5.94909e-47 8.09859e-47 1.08525e-46 1.4316e-46 1.85906e-46 2.37667e-46 2.99142e-46 3.70736e-46 4.52464e-46 5.43883e-46 6.44042e-46 7.51474e-46 8.64229e-46 9.79955e-46 1.09602e-45 1.20968e-45 1.31825e-45 1.41927e-45 1.51072e-45 1.59111e-45 1.6596e-45 1.716e-45 1.76077e-45 1.79494e-45 1.81996e-45 1.83757e-45 1.84963e-45 1.85799e-45 1.86433e-45 1.87005e-45 1.87624e-45 1.88367e-45 1.89274e-45 1.90358e-45 1.91608e-45 1.92999e-45 1.94496e-45 1.9606e-45 1.97658e-45 1.9926e-45 2.00843e-45 2.02392e-45 2.03898e-45 2.05355e-45 2.06758e-45 2.08099e-45 2.09367e-45 2.10543e-45 2.11602e-45 2.12515e-45 2.13246e-45 2.13757e-45 2.14012e-45 2.13981e-45 2.1364e-45 2.12976e-45 2.11989e-45 2.10692e-45 2.09107e-45 2.07271e-45 2.05223e-45 2.03006e-45 2.00664e-45 1.98232e-45 1.95743e-45 1.93217e-45 1.9067e-45 1.88108e-45 1.85536e-45 1.8296e-45 1.8039e-45 1.77846e-45 1.75356e-45 1.72963e-45 1.70719e-45 1.68682e-45 1.66917e-45 1.65481e-45 1.64423e-45 1.63778e-45 1.63559e-45 1.63755e-45 1.64334e-45 1.65239e-45 1.66399e-45 1.67732e-45 1.69152e-45 1.70577e-45 1.71939e-45 1.73182e-45 1.74273e-45 1.75198e-45 1.75959e-45 1.76575e-45 1.77072e-45 1.77477e-45 1.77813e-45 1.7809e-45 1.78302e-45 1.78425e-45 1.78412e-45 1.78199e-45 1.77703e-45 1.76829e-45 1.7548e-45 1.73555e-45 1.70964e-45 1.67628e-45 1.63491e-45 1.58518e-45 1.52704e-45 1.46072e-45 1.38675e-45 1.30593e-45 1.21933e-45 1.12822e-45 1.03404e-45 9.38325e-46 8.42668e-46 7.48618e-46 6.57637e-46 5.71036e-46 4.89924e-46 4.1517e-46 3.47383e-46 2.86908e-46 2.33831e-46 1.88006e-46 1.4909e-46 1.16584e-46 8.98797e-47 6.83039e-47 5.11599e-47 3.77628e-47 2.74666e-47 1.96844e-47 1.38991e-47 9.66914e-48 6.6269e-48 4.47458e-48 2.97657e-48 1.95079e-48 1.25964e-48 8.01392e-49 5.0237e-49 3.1032e-49 1.88899e-49 1.13322e-49 6.70042e-50 3.90502e-50 2.24346e-50 1.27066e-50 7.09564e-51 3.90708e-51 2.12155e-51 1.13616e-51 6.00146e-52 3.12716e-52 1.60756e-52 8.15367e-53 4.08091e-53 2.01569e-53 9.82662e-54 4.72871e-54 2.2464e-54 1.05362e-54 4.87945e-55 2.23124e-55 1.00691e-55 4.46985e-56 1.91581e-56 7.05205e-57 0 
0 5.49876e-77 2.138e-76 7.71117e-76 2.7445e-75 9.68117e-75 3.38555e-74 1.17368e-73 4.03334e-73 1.37387e-72 4.63834e-72 1.55199e-71 5.14632e-71 1.69104e-70 5.50597e-70 1.77625e-69 5.67719e-69 1.7976e-68 5.63832e-68 1.75175e-67 5.39051e-67 1.64281e-66 4.95809e-66 1.48175e-65 4.38465e-65 1.28458e-64 3.72577e-64 1.06971e-63 3.04002e-63 8.55082e-63 2.38026e-62 6.55674e-62 1.78715e-61 4.81951e-61 1.28581e-60 3.39346e-60 8.85846e-60 2.2871e-59 5.83954e-59 1.47435e-58 3.68049e-58 9.08345e-58 2.21612e-57 5.34428e-57 1.27377e-56 3.00025e-56 6.98297e-56 1.6058e-55 3.6481e-55 8.18686e-55 1.81466e-54 3.97238e-54 8.58689e-54 1.83274e-53 3.86186e-53 8.03287e-53 1.6492e-52 3.3416e-52 6.68132e-52 1.31809e-51 2.56536e-51 4.9252e-51 9.32649e-51 1.74172e-50 3.20742e-50 5.82365e-50 1.04243e-49 1.83932e-49 3.19875e-49 5.48231e-49 9.25887e-49 1.54069e-48 2.52576e-48 4.07887e-48 6.48806e-48 1.01643e-47 1.56814e-47 2.38233e-47 3.56364e-47 5.24842e-47 7.60991e-47 1.08623e-46 1.52629e-46 2.1111e-46 2.87428e-46 3.85208e-46 5.08173e-46 6.5992e-46 8.43636e-46 1.06178e-45 1.31573e-45 1.60552e-45 1.9295e-45 2.28422e-45 2.66442e-45 3.06311e-45 3.47187e-45 3.88133e-45 4.28171e-45 4.66347e-45 5.01796e-45 5.33803e-45 5.6185e-45 5.85646e-45 6.05139e-45 6.20502e-45 6.3211e-45 6.40488e-45 6.46263e-45 6.50102e-45 6.52662e-45 6.54538e-45 6.56233e-45 6.5813e-45 6.60494e-45 6.63468e-45 6.67093e-45 6.71329e-45 6.76081e-45 6.81222e-45 6.86618e-45 6.92142e-45 6.97688e-45 7.03178e-45 7.08555e-45 7.13787e-45 7.18851e-45 7.23729e-45 7.28394e-45 7.32806e-45 7.36901e-45 7.40593e-45 7.43776e-45 7.46325e-45 7.48111e-45 7.49009e-45 7.48907e-45 7.47725e-45 7.45417e-45 7.41984e-45 7.37467e-45 7.31952e-45 7.25558e-45 7.18428e-45 7.10713e-45 7.0256e-45 6.941e-45 6.8544e-45 6.76655e-45 6.67794e-45 6.58883e-45 6.49938e-45 6.40977e-45 6.32035e-45 6.23178e-45 6.14509e-45 6.06172e-45 5.98351e-45 5.91253e-45 5.85098e-45 5.80091e-45 5.76405e-45 5.74159e-45 5.734e-45 5.74091e-45 5.76117e-45 5.79283e-45 5.83339e-45 5.87997e-45 5.92956e-45 5.97933e-45 6.02682e-45 6.07016e-45 6.10816e-45 6.14033e-45 6.16681e-45 6.18823e-45 6.20552e-45 6.21965e-45 6.23143e-45 6.24124e-45 6.2489e-45 6.25354e-45 6.25359e-45 6.24675e-45 6.23016e-45 6.20055e-45 6.15442e-45 6.08829e-45 5.99895e-45 5.88366e-45 5.74035e-45 5.56781e-45 5.36578e-45 5.135e-45 4.87724e-45 4.59529e-45 4.29279e-45 3.97415e-45 3.6444e-45 3.30891e-45 2.97323e-45 2.64284e-45 2.3229e-45 2.01806e-45 1.73227e-45 1.46865e-45 1.2294e-45 1.01578e-45 8.28172e-46 6.66089e-46 5.28363e-46 4.13266e-46 3.18669e-46 2.4221e-46 1.81437e-46 1.33934e-46 9.74199e-47 6.98169e-47 4.92954e-47 3.42901e-47 2.34984e-47 1.5864e-47 1.05511e-47 6.91347e-48 4.46299e-48 2.8386e-48 1.7789e-48 1.09849e-48 6.68449e-49 4.00863e-49 2.36928e-49 1.38027e-49 7.92645e-50 4.48747e-50 2.5048e-50 1.3786e-50 7.48233e-51 4.00515e-51 2.1146e-51 1.10132e-51 5.65869e-52 2.86872e-52 1.43508e-52 7.0848e-53 3.45216e-53 1.6604e-53 7.88387e-54 3.69589e-54 1.71076e-54 7.81897e-55 3.52681e-55 1.56487e-55 6.70421e-56 2.46697e-56 0 
0 1.86642e-76 7.2583e-76 2.61844e-75 9.32152e-75 3.28893e-74 1.15043e-73 3.98926e-73 1.37126e-72 4.67213e-72 1.5778e-71 5.2808e-71 1.75159e-70 5.75729e-70 1.87512e-69 6.05108e-69 1.93464e-68 6.12776e-68 1.92267e-67 5.97553e-67 1.83944e-66 5.60789e-66 1.69311e-65 5.06184e-65 1.49843e-64 4.39169e-64 1.27427e-63 3.66008e-63 1.0406e-62 2.92819e-62 8.15465e-62 2.24731e-61 6.12819e-61 1.65339e-60 4.41321e-60 1.16528e-59 3.04339e-59 7.86141e-59 2.00824e-58 5.07294e-58 1.26705e-57 3.12874e-57 7.63742e-57 1.84281e-56 4.39466e-56 1.0357e-55 2.41193e-55 5.54968e-55 1.26153e-54 2.83271e-54 6.28259e-54 1.37612e-53 2.97648e-53 6.35672e-53 1.34028e-52 2.78957e-52 5.73071e-52 1.16187e-51 2.32453e-51 4.58867e-51 8.93635e-51 1.71674e-50 3.25285e-50 6.07841e-50 1.12003e-49 2.03483e-49 3.64447e-49 6.43425e-49 1.11961e-48 1.91996e-48 3.2443e-48 5.40142e-48 8.85941e-48 1.43141e-47 2.27794e-47 3.57025e-47 5.51047e-47 8.37484e-47 1.25322e-46 1.84632e-46 2.67786e-46 3.82337e-46 5.37354e-46 7.43387e-46 1.01228e-45 1.3568e-45 1.79003e-45 2.3246e-45 2.97167e-45 3.73978e-45 4.63369e-45 5.65326e-45 6.79251e-45 8.03907e-45 9.37409e-45 1.07727e-44 1.22051e-44 1.36381e-44 1.50371e-44 1.63686e-44 1.76022e-44 1.87129e-44 1.96829e-44 2.05022e-44 2.11694e-44 2.16911e-44 2.20809e-44 2.23577e-44 2.25437e-44 2.26628e-44 2.27381e-44 2.27907e-44 2.28382e-44 2.28941e-44 2.29675e-44 2.30634e-44 2.3183e-44 2.3325e-44 2.34857e-44 2.36606e-44 2.3845e-44 2.40342e-44 2.42246e-44 2.44133e-44 2.45984e-44 2.47785e-44 2.4953e-44 2.51212e-44 2.52821e-44 2.54343e-44 2.55757e-44 2.57033e-44 2.58134e-44 2.59016e-44 2.59635e-44 2.59947e-44 2.59914e-44 2.59508e-44 2.58713e-44 2.57529e-44 2.5597e-44 2.54066e-44 2.51859e-44 2.49398e-44 2.46735e-44 2.43922e-44 2.41003e-44 2.38016e-44 2.34986e-44 2.3193e-44 2.28858e-44 2.25773e-44 2.22682e-44 2.19597e-44 2.1654e-44 2.13546e-44 2.10667e-44 2.07964e-44 2.05511e-44 2.03383e-44 2.01652e-44 2.00378e-44 1.99603e-44 1.99342e-44 1.99584e-44 2.00287e-44 2.01386e-44 2.02792e-44 2.04406e-44 2.06123e-44 2.07846e-44 2.09489e-44 2.10987e-44 2.12299e-44 2.13409e-44 2.14322e-44 2.15061e-44 2.15657e-44 2.16146e-44 2.16556e-44 2.169e-44 2.17175e-44 2.17349e-44 2.17368e-44 2.17153e-44 2.16607e-44 2.15613e-44 2.14052e-44 2.11803e-44 2.08752e-44 2.04803e-44 1.99885e-44 1.93952e-44 1.86994e-44 1.79034e-44 1.70131e-44 1.60379e-44 1.49902e-44 1.38854e-44 1.27405e-44 1.15744e-44 1.04063e-44 9.25521e-45 8.13935e-45 7.07504e-45 6.07624e-45 5.15405e-45 4.3164e-45 3.56791e-45 2.91003e-45 2.3413e-45 1.85774e-45 1.45342e-45 1.12096e-45 8.52146e-46 6.3841e-46 4.71299e-46 3.42819e-46 2.45682e-46 1.73459e-46 1.20648e-46 8.26674e-47 5.58006e-47 3.71053e-47 2.43073e-47 1.56875e-47 9.97488e-48 6.24915e-48 3.85762e-48 2.34658e-48 1.40669e-48 8.31082e-49 4.83962e-49 2.77804e-49 1.57206e-49 8.77082e-50 4.82503e-50 2.61754e-50 1.40043e-50 7.39022e-51 3.84701e-51 1.97564e-51 1.00106e-51 5.00522e-52 2.46974e-52 1.20279e-52 5.7821e-53 2.74403e-53 1.28572e-53 5.94829e-54 2.71726e-54 1.22502e-54 5.43283e-55 2.32648e-55 8.55788e-56 0 