# vtk DataFile Version 3.0
Gray-Scott Simulation Output
ASCII
DATASET STRUCTURED_POINTS
DIMENSIONS 256 256 1
SPACING 1.0 1.0 1.0
ORIGIN 0 0 0
POINT_DATA 65536
SCALARS u double
LOOKUP_TABLE default
0 0 0 0 0 0 0 0 0 0 0 0 0 0 0 0 0 0 0 0 0 0 0 0 0 0 0 0 0 0 0 0 0 0 0 0 0 0 0 0 0 0 0 0 0 0 0 0 0 0 0 0 0 0 0 0 0 0 0 0 0 0 0 0 0 0 0 0 0 0 0 0 0 0 0 0 0 0 0 0 0 0 0 0 0 0 0 0 0 0 0 0 0 0 0 0 0 0 0 0 0 0 0 0 0 0 0 0 0 0 0 0 0 0 0 0 0 0 0 0 0 0 0 0 0 0 0 0 0 0 0 0 0 0 0 0 0 0 0 0 0 0 0 0 0 0 0 0 0 0 0 0 0 0 0 0 0 0 0 0 0 0 0 0 0 0 0 0 0 0 0 0 0 0 0 0 0 0 0 0 0 0 0 0 0 0 0 0 0 0 0 0 0 0 0 0 0 0 0 0 0 0 0 0 0 0 0 0 0 0 0 0 0 0 0 0 0 0 0 0 0 0 0 0 0 0 0 0 0 0 0 0 0 0 0 0 0 0 0 0 0 0 0 0 0 0 0 0 0 0 0 0 0 0 0 0 
0 1.23785e-75 4.23522e-75 1.31768e-74 4.03339e-74 1.22372e-73 3.68261e-73 1.09925e-72 3.25451e-72 9.55653e-72 2.78302e-71 8.03732e-71 2.30175e-70 6.53635e-70 1.84041e-69 5.13777e-69 1.42196e-68 3.90145e-68 1.06112e-67 2.86076e-67 7.64443e-67 2.02455e-66 5.31381e-66 1.38213e-65 3.56229e-65 9.09742e-65 2.30191e-64 5.77042e-64 1.43301e-63 3.52519e-63 8.58967e-63 2.07301e-62 4.95479e-62 1.17278e-61 2.74883e-61 6.37942e-61 1.46584e-60 3.3345e-60 7.50899e-60 1.6738e-59 3.69287e-59 8.0636e-59 1.74246e-58 3.7259e-58 7.8831e-58 1.65016e-57 3.41729e-57 7.00049e-57 1.4185e-56 2.84279e-56 5.63429e-56 1.10427e-55 2.14001e-55 4.10034e-55 7.76697e-55 1.45436e-54 2.69179e-54 4.92405e-54 8.90176e-54 1.59024e-53 2.807e-53 4.89531e-53 8.434e-53 1.43538e-52 2.4129e-52 4.00605e-52 6.56839e-52 1.06348e-51 1.70018e-51 2.68361e-51 4.18183e-51 6.43287e-51 9.76792e-51 1.46395e-50 2.16547e-50 3.16118e-50 4.55401e-50 6.47384e-50 9.081e-50 1.25687e-49 1.71641e-49 2.31266e-49 3.07436e-49 4.03226e-49 5.21788e-49 6.66192e-49 8.39223e-49 1.04315e-48 1.27949e-48 1.54875e-48 1.85024e-48 2.18187e-48 2.5401e-48 2.91996e-48 3.31513e-48 3.71822e-48 4.12106e-48 4.51517e-48 4.89222e-48 5.24447e-48 5.56531e-48 5.84956e-48 6.09379e-48 6.2965e-48 6.45804e-48 6.58055e-48 6.6677e-48 6.7243e-48 6.75592e-48 6.76848e-48 6.76784e-48 6.75944e-48 6.74805e-48 6.73755e-48 6.7309e-48 6.73006e-48 6.73614e-48 6.74947e-48 6.7698e-48 6.7964e-48 6.82832e-48 6.86445e-48 6.90368e-48 6.94494e-48 6.98727e-48 7.02982e-48 7.07181e-48 7.11255e-48 7.15135e-48 7.18753e-48 7.22034e-48 7.24902e-48 7.27276e-48 7.29072e-48 7.30211e-48 7.3062e-48 7.3024e-48 7.29027e-48 7.26962e-48 7.24047e-48 7.2031e-48 7.158e-48 7.10584e-48 7.04744e-48 6.98371e-48 6.91554e-48 6.84382e-48 6.76936e-48 6.69289e-48 6.61507e-48 6.53648e-48 6.45772e-48 6.37941e-48 6.30227e-48 6.22713e-48 6.155e-48 6.08699e-48 6.02434e-48 5.96834e-48 5.92021e-48 5.88105e-48 5.85171e-48 5.8327e-48 5.82411e-48 5.82563e-48 5.83646e-48 5.85544e-48 5.88111e-48 5.91177e-48 5.94567e-48 5.9811e-48 6.01654e-48 6.0507e-48 6.08264e-48 6.11173e-48 6.13766e-48 6.16036e-48 6.17991e-48 6.19641e-48 6.2099e-48 6.22017e-48 6.22675e-48 6.2288e-48 6.22506e-48 6.21391e-48 6.19334e-48 6.16112e-48 6.11484e-48 6.05203e-48 5.97036e-48 5.86773e-48 5.7424e-48 5.59316e-48 5.41937e-48 5.2211e-48 4.99912e-48 4.75496e-48 4.49087e-48 4.20976e-48 3.91516e-48 3.61103e-48 3.30168e-48 2.99156e-48 2.68514e-48 2.38667e-48 2.10008e-48 1.82879e-48 1.57562e-48 1.34272e-48 1.13151e-48 9.42689e-49 7.763e-49 6.3177e-49 5.08024e-49 4.0359e-49 3.16716e-49 2.45485e-49 1.87915e-49 1.42052e-49 1.06035e-49 7.81527e-50 5.68745e-50 4.08654e-50 2.89902e-50 2.03049e-50 1.40412e-50 9.58673e-51 6.46254e-51 4.30147e-51 2.82698e-51 1.8346e-51 1.17568e-51 7.44029e-52 4.65013e-52 2.87038e-52 1.75002e-52 1.0539e-52 6.2696e-53 3.68465e-53 2.13942e-53 1.22737e-53 6.95771e-54 3.89762e-54 2.1578e-54 1.18069e-54 6.38568e-55 3.41397e-55 1.80438e-55 9.42839e-56 4.87076e-56 2.48719e-56 1.25384e-56 6.20526e-57 2.93897e-57 1.16679e-57 0 
0 4.22863e-75 1.44709e-74 4.50337e-74 1.37883e-73 4.18445e-73 1.25959e-72 3.76087e-72 1.11378e-71 3.27145e-71 9.52982e-71 2.75302e-70 7.8866e-70 2.24028e-69 6.30988e-69 1.76206e-68 4.8784e-68 1.33895e-67 3.64295e-67 9.82474e-67 2.62627e-66 6.95795e-66 1.82692e-65 4.75363e-65 1.22567e-64 3.13135e-64 7.92634e-64 1.98778e-63 4.93841e-63 1.21535e-62 2.96264e-62 7.15303e-62 1.71042e-61 4.05031e-61 9.49757e-61 2.20518e-60 5.06931e-60 1.15371e-59 2.59927e-59 5.7967e-59 1.27953e-58 2.79529e-58 6.04331e-58 1.29288e-57 2.7368e-57 5.73181e-57 1.1876e-56 2.4341e-56 4.93471e-56 9.89469e-56 1.96211e-55 3.84756e-55 7.46024e-55 1.43016e-54 2.71046e-54 5.07797e-54 9.40343e-54 1.72105e-53 3.11293e-53 5.56387e-53 9.82603e-53 1.71448e-52 2.95529e-52 5.03204e-52 8.46301e-52 1.40574e-51 2.30593e-51 3.73517e-51 5.97396e-51 9.43337e-51 1.47058e-50 2.26304e-50 3.43754e-50 5.15374e-50 7.62583e-50 1.11356e-49 1.60464e-49 2.28167e-49 3.20127e-49 4.43163e-49 6.05289e-49 8.1566e-49 1.08441e-48 1.42238e-48 1.84065e-48 2.35002e-48 2.96024e-48 3.67923e-48 4.5122e-48 5.46081e-48 6.52238e-48 7.68938e-48 8.9491e-48 1.02837e-47 1.16707e-47 1.30839e-47 1.44942e-47 1.58717e-47 1.71869e-47 1.84127e-47 1.95259e-47 2.05085e-47 2.13488e-47 2.20417e-47 2.2589e-47 2.29986e-47 2.32839e-47 2.34621e-47 2.35533e-47 2.35785e-47 2.35586e-47 2.35127e-47 2.34578e-47 2.34075e-47 2.33721e-47 2.33584e-47 2.33703e-47 2.34087e-47 2.34727e-47 2.35595e-47 2.36657e-47 2.37872e-47 2.39202e-47 2.40607e-47 2.42054e-47 2.43511e-47 2.44953e-47 2.46353e-47 2.47687e-47 2.48933e-47 2.50063e-47 2.51052e-47 2.51871e-47 2.52492e-47 2.52886e-47 2.53028e-47 2.52899e-47 2.52482e-47 2.51771e-47 2.50767e-47 2.4948e-47 2.47926e-47 2.46128e-47 2.44116e-47 2.41919e-47 2.3957e-47 2.37099e-47 2.34534e-47 2.31899e-47 2.29218e-47 2.26511e-47 2.23797e-47 2.21098e-47 2.1844e-47 2.1585e-47 2.13363e-47 2.11018e-47 2.08857e-47 2.06926e-47 2.05266e-47 2.03916e-47 2.02904e-47 2.02249e-47 2.01955e-47 2.02009e-47 2.02385e-47 2.03043e-47 2.03931e-47 2.04991e-47 2.06163e-47 2.07388e-47 2.08612e-47 2.09792e-47 2.10895e-47 2.11899e-47 2.12796e-47 2.13581e-47 2.1426e-47 2.14835e-47 2.15309e-47 2.15675e-47 2.15917e-47 2.16007e-47 2.15903e-47 2.15547e-47 2.14871e-47 2.13797e-47 2.12242e-47 2.1012e-47 2.0735e-47 2.03857e-47 1.99579e-47 1.94474e-47 1.88516e-47 1.81707e-47 1.74069e-47 1.65655e-47 1.5654e-47 1.46824e-47 1.36627e-47 1.26086e-47 1.1535e-47 1.04574e-47 9.3915e-48 8.35208e-48 7.35298e-48 6.4063e-48 5.52206e-48 4.7079e-48 3.96897e-48 3.30792e-48 2.725e-48 2.21836e-48 1.78435e-48 1.41789e-48 1.11291e-48 8.62765e-49 6.60526e-49 4.99368e-49 3.72781e-49 2.74769e-49 1.99961e-49 1.43673e-49 1.01918e-49 7.13784e-50 4.93545e-50 3.36927e-50 2.27092e-50 1.51126e-50 9.93026e-51 6.44294e-51 4.1279e-51 2.61167e-51 1.63183e-51 1.00699e-51 6.13756e-52 3.69501e-52 2.19742e-52 1.29098e-52 7.49324e-53 4.29727e-53 2.43513e-53 1.36361e-53 7.54633e-54 4.12753e-54 2.23146e-54 1.19253e-54 6.30027e-55 3.29074e-55 1.69931e-55 8.67375e-56 4.37082e-56 2.16227e-56 1.02375e-56 4.06329e-57 0 
0 1.31318e-74 4.49499e-74 1.39926e-73 4.28552e-73 1.30098e-72 3.91744e-72 1.17006e-71 3.46631e-71 1.01849e-70 2.96794e-70 8.57702e-70 2.45797e-69 6.98478e-69 1.96806e-68 5.49804e-68 1.52278e-67 4.18119e-67 1.13807e-66 3.07058e-66 8.21154e-66 2.17649e-65 5.71726e-65 1.4883e-64 3.83918e-64 9.81298e-64 2.48513e-63 6.23527e-63 1.54985e-62 3.8161e-62 9.30719e-62 2.2483e-61 5.37892e-61 1.27441e-60 2.98998e-60 6.94603e-60 1.59765e-59 3.63808e-59 8.20114e-59 1.83001e-58 4.04181e-58 8.83501e-58 1.91123e-57 4.09125e-57 8.66567e-57 1.816e-56 3.76494e-56 7.72138e-56 1.56635e-55 3.14268e-55 6.2358e-55 1.22357e-54 2.37393e-54 4.55379e-54 8.63586e-54 1.61892e-53 2.99981e-53 5.49377e-53 9.94297e-53 1.77825e-52 3.14237e-52 5.48622e-52 9.46238e-52 1.61212e-51 2.71287e-51 4.50873e-51 7.40003e-51 1.19931e-50 1.91915e-50 3.03202e-50 4.72893e-50 7.28061e-50 1.1064e-49 1.65947e-49 2.45643e-49 3.58829e-49 5.17245e-49 7.35704e-49 1.03249e-48 1.42965e-48 1.95306e-48 2.63228e-48 3.5e-48 4.59115e-48 5.94145e-48 7.58555e-48 9.55469e-48 1.18741e-47 1.456e-47 1.76173e-47 2.10366e-47 2.47926e-47 2.88435e-47 3.31309e-47 3.75812e-47 4.21087e-47 4.66197e-47 5.10167e-47 5.52049e-47 5.90969e-47 6.26184e-47 6.57125e-47 6.83425e-47 7.04937e-47 7.21733e-47 7.34087e-47 7.42442e-47 7.47372e-47 7.49532e-47 7.49613e-47 7.4829e-47 7.46189e-47 7.43852e-47 7.4172e-47 7.40121e-47 7.39273e-47 7.3929e-47 7.40203e-47 7.41971e-47 7.44505e-47 7.47689e-47 7.5139e-47 7.55475e-47 7.59821e-47 7.64313e-47 7.68853e-47 7.73352e-47 7.77729e-47 7.81908e-47 7.85812e-47 7.89359e-47 7.92464e-47 7.95038e-47 7.9699e-47 7.98232e-47 7.98685e-47 7.98283e-47 7.96981e-47 7.94754e-47 7.91606e-47 7.87567e-47 7.82691e-47 7.77051e-47 7.70736e-47 7.63844e-47 7.56474e-47 7.48721e-47 7.40673e-47 7.32409e-47 7.23998e-47 7.15504e-47 7.06991e-47 6.98524e-47 6.9018e-47 6.82051e-47 6.74243e-47 6.66879e-47 6.60094e-47 6.54027e-47 6.48813e-47 6.44573e-47 6.41397e-47 6.39344e-47 6.38424e-47 6.38602e-47 6.39792e-47 6.41869e-47 6.44669e-47 6.48011e-47 6.51703e-47 6.55558e-47 6.59411e-47 6.63124e-47 6.66594e-47 6.69756e-47 6.72578e-47 6.75056e-47 6.77203e-47 6.79033e-47 6.80554e-47 6.8175e-47 6.82571e-47 6.82931e-47 6.82695e-47 6.81688e-47 6.79694e-47 6.76469e-47 6.71746e-47 6.65255e-47 6.56734e-47 6.45944e-47 6.32687e-47 6.16816e-47 5.98249e-47 5.76975e-47 5.53065e-47 5.26669e-47 4.9802e-47 4.67426e-47 4.35262e-47 4.01959e-47 3.67988e-47 3.3384e-47 3.00011e-47 2.66981e-47 2.35191e-47 2.05033e-47 1.76833e-47 1.50842e-47 1.2723e-47 1.06087e-47 8.74291e-48 7.12008e-48 5.72896e-48 4.5537e-48 3.57515e-48 2.77213e-48 2.12268e-48 1.60498e-48 1.19823e-48 8.83232e-49 6.42772e-49 4.61823e-49 3.27585e-49 2.29403e-49 1.58601e-49 1.08255e-49 7.29514e-50 4.85376e-50 3.18857e-50 2.06826e-50 1.32473e-50 8.37882e-51 5.23356e-51 3.22847e-51 1.96702e-51 1.18376e-51 7.03705e-52 4.13257e-52 2.39765e-52 1.37442e-52 7.78496e-53 4.35742e-53 2.41031e-53 1.31772e-53 7.1206e-54 3.80352e-54 2.00848e-54 1.04855e-54 5.41196e-55 2.76105e-55 1.39065e-55 6.87639e-56 3.2543e-56 1.29124e-56 0 
0 4.0118e-74 1.37359e-73 4.27719e-73 1.31041e-72 3.97943e-72 1.19867e-71 3.58144e-71 1.06138e-70 3.11976e-70 9.09453e-70 2.62922e-69 7.53765e-69 2.14281e-68 6.0401e-68 1.68808e-67 4.67739e-67 1.28485e-66 3.49874e-66 9.44398e-66 2.52672e-65 6.70021e-65 1.76085e-64 4.586e-64 1.18357e-63 3.0267e-63 7.66895e-63 1.92515e-62 4.78766e-62 1.17946e-61 2.87816e-61 6.95644e-61 1.66521e-60 3.94754e-60 9.26685e-60 2.15402e-59 4.95735e-59 1.12953e-58 2.54776e-58 5.68855e-58 1.25716e-57 2.74974e-57 5.95207e-57 1.27493e-56 2.70215e-56 5.66633e-56 1.17551e-55 2.41239e-55 4.89694e-55 9.83158e-55 1.95211e-54 3.83291e-54 7.44145e-54 1.42841e-53 2.71066e-53 5.08491e-53 9.42844e-53 1.72784e-52 3.12922e-52 5.6001e-52 9.90244e-52 1.72996e-51 2.98564e-51 5.08986e-51 8.57043e-51 1.42524e-50 2.34057e-50 3.79548e-50 6.07694e-50 9.60594e-50 1.49897e-49 2.30894e-49 3.51046e-49 5.26759e-49 7.80058e-49 1.13993e-48 1.64377e-48 2.33878e-48 3.28322e-48 4.54728e-48 6.21341e-48 8.37568e-48 1.11381e-47 1.46118e-47 1.891e-47 2.41425e-47 3.04078e-47 3.77851e-47 4.63246e-47 5.60394e-47 6.68973e-47 7.88153e-47 9.16571e-47 1.05233e-46 1.19307e-46 1.33604e-46 1.47822e-46 1.61651e-46 1.74789e-46 1.86959e-46 1.97926e-46 2.07513e-46 2.15608e-46 2.22169e-46 2.27223e-46 2.30865e-46 2.33239e-46 2.34533e-46 2.34959e-46 2.3474e-46 2.34093e-46 2.33218e-46 2.32287e-46 2.3144e-46 2.3078e-46 2.30375e-46 2.3026e-46 2.30442e-46 2.30907e-46 2.31626e-46 2.32559e-46 2.33663e-46 2.34896e-46 2.36216e-46 2.37587e-46 2.38978e-46 2.40359e-46 2.41706e-46 2.42994e-46 2.44198e-46 2.45293e-46 2.46252e-46 2.47048e-46 2.47653e-46 2.48038e-46 2.4818e-46 2.48058e-46 2.47657e-46 2.4697e-46 2.45999e-46 2.44752e-46 2.43247e-46 2.41505e-46 2.39555e-46 2.37426e-46 2.35151e-46 2.32757e-46 2.30272e-46 2.27721e-46 2.25124e-46 2.22502e-46 2.19873e-46 2.17259e-46 2.14682e-46 2.1217e-46 2.09758e-46 2.07482e-46 2.05385e-46 2.03509e-46 2.01897e-46 2.00587e-46 1.99606e-46 1.98972e-46 1.98689e-46 1.98747e-46 1.99118e-46 1.99763e-46 2.00633e-46 2.01669e-46 2.02814e-46 2.04009e-46 2.05203e-46 2.06352e-46 2.07427e-46 2.08406e-46 2.09281e-46 2.10051e-46 2.1072e-46 2.11293e-46 2.11775e-46 2.1216e-46 2.12434e-46 2.1257e-46 2.12529e-46 2.12255e-46 2.11683e-46 2.10735e-46 2.0933e-46 2.07382e-46 2.04809e-46 2.01536e-46 1.97499e-46 1.9265e-46 1.86961e-46 1.80426e-46 1.73063e-46 1.64916e-46 1.56056e-46 1.46576e-46 1.3659e-46 1.26233e-46 1.15649e-46 1.04994e-46 9.44217e-47 8.40841e-47 7.41213e-47 6.4658e-47 5.57985e-47 4.76239e-47 4.01901e-47 3.35277e-47 2.76432e-47 2.2521e-47 1.81272e-47 1.44129e-47 1.13187e-47 8.77828e-48 6.72286e-48 5.08388e-48 3.79581e-48 2.79808e-48 2.03632e-48 1.46303e-48 1.0377e-48 7.26614e-49 5.02286e-49 3.42784e-49 2.30952e-49 1.53627e-49 1.00897e-49 6.54283e-50 4.18943e-50 2.64892e-50 1.65399e-50 1.01994e-50 6.21182e-51 3.73679e-51 2.22046e-51 1.30342e-51 7.55888e-52 4.33104e-52 2.45203e-52 1.3718e-52 7.58443e-53 4.14437e-53 2.23837e-53 1.19504e-53 6.30724e-54 3.29106e-54 1.69776e-54 8.65706e-55 4.35803e-55 2.15385e-55 1.01887e-55 4.04135e-56 0 
0 1.21476e-73 4.16028e-73 1.29588e-72 3.97154e-72 1.20648e-71 3.63541e-71 1.08659e-70 3.22137e-70 9.47224e-70 2.76235e-69 7.98904e-69 2.29127e-68 6.51629e-68 1.83756e-67 5.13775e-67 1.4242e-66 3.91391e-66 1.06626e-65 2.87943e-65 7.70745e-65 2.04479e-64 5.37642e-64 1.40093e-63 3.61736e-63 9.25529e-63 2.34629e-62 5.89303e-62 1.46632e-61 3.61432e-61 8.82466e-61 2.13409e-60 5.11142e-60 1.21242e-59 2.84781e-59 6.62351e-59 1.52528e-58 3.47746e-58 7.8486e-58 1.7535e-57 3.87766e-57 8.48689e-57 1.83826e-56 3.94011e-56 8.35638e-56 1.75347e-55 3.64012e-55 7.4753e-55 1.51845e-54 3.05068e-54 6.06143e-54 1.19096e-53 2.3138e-53 4.44449e-53 8.44003e-53 1.58436e-52 2.93974e-52 5.39102e-52 9.7701e-52 1.74966e-51 3.09593e-51 5.41221e-51 9.34675e-51 1.59445e-50 2.68648e-50 4.47032e-50 7.34577e-50 1.1919e-49 1.90945e-49 3.01999e-49 4.71513e-49 7.26668e-49 1.10535e-48 1.65939e-48 2.4584e-48 3.59403e-48 5.1845e-48 7.37907e-48 1.0362e-47 1.43553e-47 1.96194e-47 2.64519e-47 3.51811e-47 4.61573e-47 5.97376e-47 7.62668e-47 9.60537e-47 1.19344e-46 1.46292e-46 1.76931e-46 2.11152e-46 2.48685e-46 2.89087e-46 3.31751e-46 3.75919e-46 4.20714e-46 4.65178e-46 5.08327e-46 5.49205e-46 5.86942e-46 6.20806e-46 6.50246e-46 6.74921e-46 6.94716e-46 7.09738e-46 7.20297e-46 7.26872e-46 7.30069e-46 7.3057e-46 7.29088e-46 7.26315e-46 7.22884e-46 7.19341e-46 7.16124e-46 7.13555e-46 7.11843e-46 7.11093e-46 7.11323e-46 7.12481e-46 7.1447e-46 7.17161e-46 7.20414e-46 7.24092e-46 7.28062e-46 7.32208e-46 7.36428e-46 7.40632e-46 7.44738e-46 7.48669e-46 7.5235e-46 7.55701e-46 7.58641e-46 7.61082e-46 7.62938e-46 7.64124e-46 7.64564e-46 7.64195e-46 7.62972e-46 7.60874e-46 7.57903e-46 7.54088e-46 7.49479e-46 7.44147e-46 7.38177e-46 7.31662e-46 7.24695e-46 7.17368e-46 7.09764e-46 7.01956e-46 6.9401e-46 6.85985e-46 6.7794e-46 6.69936e-46 6.62047e-46 6.54357e-46 6.46967e-46 6.39995e-46 6.33568e-46 6.27821e-46 6.22881e-46 6.18865e-46 6.1586e-46 6.13922e-46 6.13062e-46 6.13246e-46 6.14392e-46 6.16381e-46 6.19057e-46 6.22246e-46 6.25765e-46 6.29436e-46 6.33102e-46 6.36632e-46 6.39931e-46 6.42939e-46 6.45628e-46 6.47998e-46 6.50065e-46 6.51849e-46 6.5336e-46 6.5459e-46 6.55495e-46 6.55997e-46 6.55972e-46 6.55256e-46 6.53644e-46 6.50903e-46 6.46776e-46 6.41001e-46 6.33321e-46 6.23499e-46 6.11331e-46 5.96664e-46 5.79401e-46 5.59515e-46 5.37052e-46 5.12141e-46 4.84987e-46 4.5587e-46 4.2514e-46 3.93205e-46 3.60515e-46 3.27546e-46 2.94783e-46 2.62697e-46 2.31731e-46 2.02278e-46 1.74671e-46 1.49168e-46 1.25952e-46 1.05125e-46 8.67132e-47 7.06744e-47 5.69065e-47 4.52605e-47 3.55531e-47 2.75796e-47 2.11256e-47 1.59775e-47 1.19304e-47 8.7949e-48 6.40059e-48 4.59845e-48 3.26137e-48 2.28342e-48 1.57824e-48 1.07688e-48 7.25401e-49 4.82417e-49 3.1675e-49 2.05343e-49 1.31442e-49 8.30808e-50 5.18571e-50 3.19657e-50 1.94606e-50 1.17019e-50 6.95043e-51 4.07812e-51 2.36391e-51 1.35382e-51 7.66096e-52 4.28384e-52 2.36727e-52 1.29289e-52 6.97927e-53 3.72418e-53 1.96453e-53 1.02453e-53 5.28241e-54 2.69211e-54 1.35451e-54 6.69089e-55 3.16364e-55 1.25443e-55 0 
0 3.64829e-73 1.24979e-72 3.89423e-72 1.19389e-71 3.6281e-71 1.09362e-70 3.26995e-70 9.6979e-70 2.8527e-69 8.32246e-69 2.40792e-68 6.90877e-68 1.96564e-67 5.54536e-67 1.55114e-66 4.30171e-66 1.1827e-65 3.22351e-65 8.70912e-65 2.3323e-64 6.19061e-64 1.62852e-63 4.24556e-63 1.09681e-62 2.80775e-62 7.12164e-62 1.78966e-61 4.45554e-61 1.09885e-60 2.68446e-60 6.49565e-60 1.5567e-59 3.69465e-59 8.68348e-59 2.02086e-58 4.65657e-58 1.06231e-57 2.39915e-57 5.36354e-57 1.18686e-56 2.59934e-56 5.63391e-56 1.20838e-55 2.56453e-55 5.38502e-55 1.11867e-54 2.29889e-54 4.67299e-54 9.39498e-54 1.86802e-53 3.67293e-53 7.14087e-53 1.37264e-52 2.60848e-52 4.90012e-52 9.09854e-52 1.66971e-51 3.02815e-51 5.42669e-51 9.60895e-51 1.68096e-50 2.90496e-50 4.95884e-50 8.36063e-50 1.39212e-49 2.28902e-49 3.71637e-49 5.95728e-49 9.4275e-49 1.47274e-48 2.27092e-48 3.4561e-48 5.19093e-48 7.6939e-48 1.12528e-47 1.62388e-47 2.31208e-47 3.24776e-47 4.50062e-47 6.15249e-47 8.29669e-47 1.10363e-46 1.4481e-46 1.87425e-46 2.39284e-46 3.01349e-46 3.74376e-46 4.58832e-46 5.54803e-46 6.6192e-46 7.79301e-46 9.05531e-46 1.03867e-45 1.17631e-45 1.31567e-45 1.45372e-45 1.58737e-45 1.71361e-45 1.82973e-45 1.93346e-45 2.0231e-45 2.09763e-45 2.15675e-45 2.20084e-45 2.23094e-45 2.24861e-45 2.25578e-45 2.25465e-45 2.24747e-45 2.23644e-45 2.22355e-45 2.21052e-45 2.1987e-45 2.18911e-45 2.18237e-45 2.17879e-45 2.17842e-45 2.18107e-45 2.18642e-45 2.19406e-45 2.20353e-45 2.21438e-45 2.22621e-45 2.23863e-45 2.25132e-45 2.264e-45 2.27642e-45 2.28832e-45 2.29948e-45 2.30966e-45 2.31859e-45 2.32601e-45 2.33167e-45 2.33529e-45 2.33664e-45 2.33554e-45 2.33184e-45 2.32548e-45 2.31646e-45 2.30488e-45 2.29089e-45 2.2747e-45 2.25657e-45 2.23679e-45 2.21564e-45 2.19339e-45 2.17031e-45 2.1466e-45 2.12248e-45 2.09812e-45 2.0737e-45 2.0494e-45 2.02544e-45 2.00208e-45 1.97963e-45 1.95844e-45 1.9389e-45 1.92143e-45 1.90642e-45 1.89421e-45 1.88508e-45 1.8792e-45 1.87661e-45 1.87719e-45 1.8807e-45 1.88678e-45 1.89496e-45 1.90469e-45 1.91542e-45 1.92661e-45 1.93777e-45 1.94853e-45 1.95857e-45 1.96774e-45 1.97594e-45 1.98318e-45 1.98952e-45 1.99502e-45 1.99973e-45 2.00363e-45 2.0066e-45 2.00839e-45 2.00864e-45 2.00686e-45 2.00243e-45 1.99462e-45 1.98266e-45 1.96574e-45 1.94306e-45 1.91388e-45 1.87757e-45 1.83362e-45 1.78172e-45 1.72175e-45 1.65382e-45 1.57829e-45 1.49577e-45 1.40708e-45 1.31328e-45 1.21561e-45 1.11543e-45 1.01423e-45 9.13476e-46 8.14654e-46 7.19137e-46 6.28162e-46 5.42776e-46 4.63807e-46 3.91839e-46 3.27213e-46 2.70031e-46 2.20176e-46 1.7735e-46 1.411e-46 1.10867e-46 8.60222e-47 6.59036e-47 4.985e-47 3.72264e-47 2.74439e-47 1.99727e-47 1.43487e-47 1.01758e-47 7.12369e-48 4.92296e-48 3.35847e-48 2.26184e-48 1.50384e-48 9.87134e-49 6.39748e-49 4.09375e-49 2.58665e-49 1.61393e-49 9.94466e-50 6.05178e-50 3.63744e-50 2.15953e-50 1.2665e-50 7.3379e-51 4.20039e-51 2.37572e-51 1.32778e-51 7.33354e-52 4.00312e-52 2.15981e-52 1.15187e-52 6.07288e-53 3.16535e-53 1.63114e-53 8.30828e-54 4.17794e-54 2.0627e-54 9.74838e-55 3.86403e-55 0 
0 1.08678e-72 3.72401e-72 1.16075e-71 3.55987e-71 1.08219e-70 3.26327e-70 9.76089e-70 2.89596e-69 8.52199e-69 2.4872e-68 7.19909e-68 2.06642e-67 5.88176e-67 1.66005e-66 4.64551e-66 1.2889e-65 3.54532e-65 9.66747e-65 2.61316e-64 7.00145e-64 1.85931e-63 4.89364e-63 1.27644e-62 3.29932e-62 8.45048e-62 2.14457e-61 5.39226e-61 1.34321e-60 3.31461e-60 8.1022e-60 1.96167e-59 4.70401e-59 1.11712e-58 2.62718e-58 6.11793e-58 1.41062e-57 3.22015e-57 7.27724e-57 1.62797e-56 3.60483e-56 7.9003e-56 1.71352e-55 3.67776e-55 7.81072e-55 1.64125e-54 3.41193e-54 7.0166e-54 1.42731e-53 2.87166e-53 5.71394e-53 1.12431e-52 2.18747e-52 4.20792e-52 8.00238e-52 1.50438e-51 2.79539e-51 5.1337e-51 9.31714e-51 1.67092e-50 2.9608e-50 5.18323e-50 8.96372e-50 1.53119e-49 2.58337e-49 4.3044e-49 7.08225e-49 1.15059e-48 1.84552e-48 2.92232e-48 4.56782e-48 7.04735e-48 1.0731e-47 1.61257e-47 2.39125e-47 3.49889e-47 5.05128e-47 7.1947e-47 1.01097e-46 1.40137e-46 1.9162e-46 2.58455e-46 3.43852e-46 4.51226e-46 5.84048e-46 7.45655e-46 9.3901e-46 1.16644e-45 1.42933e-45 1.7279e-45 2.0609e-45 2.4255e-45 2.81717e-45 3.22978e-45 3.6557e-45 4.08619e-45 4.51175e-45 4.9227e-45 5.30968e-45 5.66427e-45 5.97946e-45 6.2501e-45 6.47316e-45 6.64784e-45 6.77557e-45 6.85972e-45 6.90532e-45 6.9186e-45 6.90649e-45 6.87612e-45 6.83437e-45 6.78751e-45 6.74084e-45 6.6986e-45 6.66387e-45 6.63856e-45 6.62358e-45 6.61899e-45 6.62418e-45 6.63808e-45 6.65934e-45 6.68653e-45 6.71823e-45 6.7531e-45 6.78998e-45 6.82783e-45 6.86576e-45 6.90298e-45 6.93873e-45 6.9723e-45 7.00293e-45 7.02985e-45 7.05225e-45 7.06933e-45 7.08029e-45 7.08443e-45 7.08115e-45 7.07006e-45 7.05094e-45 7.02381e-45 6.98894e-45 6.94679e-45 6.89802e-45 6.84342e-45 6.78383e-45 6.72013e-45 6.65314e-45 6.58362e-45 6.51226e-45 6.43963e-45 6.36628e-45 6.29273e-45 6.21954e-45 6.14736e-45 6.07698e-45 6.00931e-45 5.94544e-45 5.88654e-45 5.83385e-45 5.78857e-45 5.75177e-45 5.72426e-45 5.70657e-45 5.6988e-45 5.70063e-45 5.71132e-45 5.72976e-45 5.75452e-45 5.78397e-45 5.81643e-45 5.85026e-45 5.88402e-45 5.91651e-45 5.94687e-45 5.97456e-45 5.99936e-45 6.02132e-45 6.04062e-45 6.05748e-45 6.07206e-45 6.08433e-45 6.09394e-45 6.1002e-45 6.10203e-45 6.09793e-45 6.08604e-45 6.06419e-45 6.03002e-45 5.98104e-45 5.91482e-45 5.82906e-45 5.72176e-45 5.59134e-45 5.43674e-45 5.25751e-45 5.05389e-45 4.82688e-45 4.57819e-45 4.31029e-45 4.02631e-45 3.72997e-45 3.42543e-45 3.11716e-45 2.80975e-45 2.50771e-45 2.21532e-45 1.93642e-45 1.67431e-45 1.4316e-45 1.21016e-45 1.01109e-45 8.34797e-46 6.80963e-46 5.48715e-46 4.36702e-46 3.43227e-46 2.66372e-46 2.0411e-46 1.54411e-46 1.15319e-46 8.5019e-47 6.18737e-47 4.44492e-47 3.15199e-47 2.20633e-47 1.52449e-47 1.03982e-47 7.00135e-48 4.65384e-48 3.05397e-48 1.97862e-48 1.2657e-48 7.99447e-49 4.98621e-49 3.07114e-49 1.86814e-49 1.12235e-49 6.66031e-50 3.90423e-50 2.26094e-50 1.29357e-50 7.3126e-51 4.08482e-51 2.25492e-51 1.23021e-51 6.63377e-52 3.53595e-52 1.86318e-52 9.70594e-53 4.99874e-53 2.54469e-53 1.27892e-53 6.31074e-54 2.98103e-54 1.18118e-54 0 
0 3.21091e-72 1.10058e-71 3.4316e-71 1.0528e-70 3.20168e-70 9.65806e-70 2.88996e-69 8.57761e-69 2.52516e-68 7.37285e-68 2.13493e-67 6.13069e-67 1.74577e-66 4.9294e-66 1.38008e-65 3.83082e-65 1.05422e-64 2.87605e-64 7.77791e-64 2.08498e-63 5.53973e-63 1.45879e-62 3.80706e-62 9.84575e-62 2.52315e-61 6.40684e-61 1.61184e-60 4.01741e-60 9.91947e-60 2.42615e-59 5.87764e-59 1.41031e-58 3.35133e-58 7.88647e-58 1.83771e-57 4.24001e-57 9.68545e-57 2.19029e-56 4.90318e-56 1.08646e-55 2.38274e-55 5.17162e-55 1.11079e-54 2.36075e-54 4.96422e-54 1.03275e-53 2.1254e-53 4.32667e-53 8.71153e-53 1.7347e-52 3.41587e-52 6.65101e-52 1.28039e-51 2.43683e-51 4.58452e-51 8.52527e-51 1.56684e-50 2.84581e-50 5.10745e-50 9.05692e-50 1.58669e-49 2.74597e-49 4.69408e-49 7.92525e-49 1.32142e-48 2.17568e-48 3.53697e-48 5.67688e-48 8.99478e-48 1.40681e-47 2.17171e-47 3.30869e-47 4.97464e-47 7.38045e-47 1.08041e-46 1.56043e-46 2.22343e-46 3.12537e-46 4.33362e-46 5.92725e-46 7.99634e-46 1.06402e-45 1.39645e-45 1.80763e-45 2.30782e-45 2.90613e-45 3.6096e-45 4.4224e-45 5.34493e-45 6.37309e-45 7.49781e-45 8.70476e-45 9.97458e-45 1.12834e-44 1.26038e-44 1.39063e-44 1.51607e-44 1.63381e-44 1.74126e-44 1.83626e-44 1.91727e-44 1.9834e-44 2.03445e-44 2.07092e-44 2.09392e-44 2.10505e-44 2.10631e-44 2.09985e-44 2.08794e-44 2.0727e-44 2.05609e-44 2.03976e-44 2.02499e-44 2.01273e-44 2.00356e-44 1.99773e-44 1.99525e-44 1.9959e-44 1.99934e-44 2.00513e-44 2.01283e-44 2.02198e-44 2.03216e-44 2.04301e-44 2.0542e-44 2.06544e-44 2.07651e-44 2.08715e-44 2.09717e-44 2.10631e-44 2.11436e-44 2.12106e-44 2.12618e-44 2.12947e-44 2.13073e-44 2.12977e-44 2.12647e-44 2.12076e-44 2.11266e-44 2.10225e-44 2.08966e-44 2.07509e-44 2.05878e-44 2.04097e-44 2.02194e-44 2.00193e-44 1.98117e-44 1.95986e-44 1.93817e-44 1.91626e-44 1.89429e-44 1.87243e-44 1.85086e-44 1.82982e-44 1.8096e-44 1.7905e-44 1.77288e-44 1.75713e-44 1.74358e-44 1.73257e-44 1.72435e-44 1.71907e-44 1.71676e-44 1.71733e-44 1.72056e-44 1.72611e-44 1.73355e-44 1.74239e-44 1.75213e-44 1.76228e-44 1.7724e-44 1.78214e-44 1.79124e-44 1.79954e-44 1.80699e-44 1.81359e-44 1.81942e-44 1.82455e-44 1.82903e-44 1.83286e-44 1.83595e-44 1.83809e-44 1.83898e-44 1.83815e-44 1.83507e-44 1.82908e-44 1.81946e-44 1.80547e-44 1.78636e-44 1.76142e-44 1.73004e-44 1.69172e-44 1.6461e-44 1.59303e-44 1.53254e-44 1.4649e-44 1.3906e-44 1.31035e-44 1.22508e-44 1.1359e-44 1.04405e-44 9.50897e-45 8.57824e-45 7.6622e-45 6.77396e-45 5.92545e-45 5.12689e-45 4.38647e-45 3.71014e-45 3.10152e-45 2.56198e-45 2.09078e-45 1.68538e-45 1.34178e-45 1.05487e-45 8.18853e-46 6.27569e-46 4.74824e-46 3.54645e-46 2.61472e-46 1.90289e-46 1.36695e-46 9.69252e-47 6.78373e-47 4.68655e-47 3.19596e-47 2.15142e-47 1.42969e-47 9.37923e-48 6.07473e-48 3.88457e-48 2.45268e-48 1.52915e-48 9.41456e-49 5.72427e-49 3.4375e-49 2.03893e-49 1.19462e-49 6.91458e-50 3.95405e-50 2.23406e-50 1.24728e-50 6.8815e-51 3.75225e-51 2.02221e-51 1.07727e-51 5.67316e-52 2.95363e-52 1.52029e-52 7.73479e-53 3.88512e-53 1.91602e-53 9.04626e-54 3.58312e-54 0 
0 9.40867e-72 3.22586e-71 1.00617e-70 3.08803e-70 9.39455e-70 2.83501e-69 8.48647e-69 2.51985e-68 7.42121e-68 2.16772e-67 6.27968e-67 1.80407e-66 5.13953e-66 1.45187e-65 4.06667e-65 1.12936e-64 3.10943e-64 8.48712e-64 2.29638e-63 6.15893e-63 1.63726e-62 4.31373e-62 1.12638e-61 2.91463e-61 7.47345e-61 1.89876e-60 4.77969e-60 1.19201e-59 2.945e-59 7.20742e-59 1.74717e-58 4.19488e-58 9.97476e-58 2.34883e-57 5.47687e-57 1.26449e-56 2.89043e-56 6.54099e-56 1.46529e-55 3.24913e-55 7.13083e-55 1.54883e-54 3.3291e-54 7.08058e-54 1.49003e-53 3.10216e-53 6.38912e-53 1.30163e-52 2.62279e-52 5.22671e-52 1.03002e-51 2.00711e-51 3.86693e-51 7.36528e-51 1.38675e-50 2.5808e-50 4.74692e-50 8.62839e-50 1.54976e-49 2.75028e-49 4.82191e-49 8.35123e-49 1.42866e-48 2.41384e-48 4.02763e-48 6.63604e-48 1.07955e-47 1.73386e-47 2.749e-47 4.3022e-47 6.64537e-47 1.01303e-46 1.52393e-46 2.26209e-46 3.31301e-46 4.78711e-46 6.82385e-46 9.59546e-46 1.33093e-45 1.82087e-45 2.45707e-45 3.27007e-45 4.29226e-45 5.5565e-45 7.09419e-45 8.93298e-45 1.10942e-44 1.35901e-44 1.64211e-44 1.9574e-44 2.30198e-44 2.67134e-44 3.05943e-44 3.45881e-44 3.86096e-44 4.25675e-44 4.63686e-44 4.99241e-44 5.31546e-44 5.59951e-44 5.83988e-44 6.03401e-44 6.18148e-44 6.28399e-44 6.34514e-44 6.37006e-44 6.36496e-44 6.33669e-44 6.2922e-44 6.23817e-44 6.18058e-44 6.12448e-44 6.07384e-44 6.03149e-44 5.99915e-44 5.97756e-44 5.96665e-44 5.96571e-44 5.97363e-44 5.98905e-44 6.01051e-44 6.03661e-44 6.06603e-44 6.09762e-44 6.13038e-44 6.16344e-44 6.19604e-44 6.22749e-44 6.2571e-44 6.28419e-44 6.30805e-44 6.32795e-44 6.34316e-44 6.35297e-44 6.35673e-44 6.35394e-44 6.3442e-44 6.32733e-44 6.30336e-44 6.27251e-44 6.23521e-44 6.19204e-44 6.14369e-44 6.09094e-44 6.03456e-44 5.97528e-44 5.91377e-44 5.85064e-44 5.78639e-44 5.7215e-44 5.65642e-44 5.59164e-44 5.52773e-44 5.46537e-44 5.4054e-44 5.34876e-44 5.29651e-44 5.24976e-44 5.20958e-44 5.17693e-44 5.15256e-44 5.13692e-44 5.13013e-44 5.13189e-44 5.14156e-44 5.15811e-44 5.18029e-44 5.20662e-44 5.23562e-44 5.26582e-44 5.29592e-44 5.32487e-44 5.35191e-44 5.3766e-44 5.39877e-44 5.41849e-44 5.43596e-44 5.45143e-44 5.4651e-44 5.47697e-44 5.4868e-44 5.49403e-44 5.49771e-44 5.49654e-44 5.48889e-44 5.47283e-44 5.44621e-44 5.4068e-44 5.35232e-44 5.28064e-44 5.18986e-44 5.07838e-44 4.94509e-44 4.78941e-44 4.61134e-44 4.41158e-44 4.19149e-44 3.95315e-44 3.69923e-44 3.43303e-44 3.15826e-44 2.87898e-44 2.5994e-44 2.32373e-44 2.05597e-44 1.79978e-44 1.55832e-44 1.33414e-44 1.12911e-44 9.44414e-45 7.80513e-45 6.37245e-45 5.13886e-45 4.09257e-45 3.21839e-45 2.49889e-45 1.9155e-45 1.44948e-45 1.0827e-45 7.98285e-46 5.80958e-46 4.17312e-46 2.95873e-46 2.07053e-46 1.43019e-46 9.75105e-47 6.56253e-47 4.35983e-47 2.85934e-47 1.85132e-47 1.18343e-47 7.46922e-48 4.65487e-48 2.86464e-48 1.74099e-48 1.045e-48 6.1953e-49 3.62805e-49 2.09886e-49 1.19958e-49 6.77404e-50 3.77986e-50 2.08426e-50 1.13582e-50 6.1178e-51 3.25717e-51 1.71429e-51 8.91982e-52 4.58847e-52 2.33308e-52 1.1712e-52 5.77268e-53 2.7241e-53 1.07858e-53 0 