# vtk DataFile Version 3.0
Gray-Scott Simulation Output
ASCII
DATASET STRUCTURED_POINTS
DIMENSIONS 256 256 1
SPACING 1.0 1.0 1.0
ORIGIN 0 0 0
POINT_DATA 65536
SCALARS u double
LOOKUP_TABLE default
0 0 0 0 0 0 0 0 0 0 0 0 0 0 0 0 0 0 0 0 0 0 0 0 0 0 0 0 0 0 0 0 0 0 0 0 0 0 0 0 0 0 0 0 0 0 0 0 0 0 0 0 0 0 0 0 0 0 0 0 0 0 0 0 0 0 0 0 0 0 0 0 0 0 0 0 0 0 0 0 0 0 0 0 0 0 0 0 0 0 0 0 0 0 0 0 0 0 0 0 0 0 0 0 0 0 0 0 0 0 0 0 0 0 0 0 0 0 0 0 0 0 0 0 0 0 0 0 0 0 0 0 0 0 0 0 0 0 0 0 0 0 0 0 0 0 0 0 0 0 0 0 0 0 0 0 0 0 0 0 0 0 0 0 0 0 0 0 0 0 0 0 0 0 0 0 0 0 0 0 0 0 0 0 0 0 0 0 0 0 0 0 0 0 0 0 0 0 0 0 0 0 0 0 0 0 0 0 0 0 0 0 0 0 0 0 0 0 0 0 0 0 0 0 0 0 0 0 0 0 0 0 0 0 0 0 0 0 0 0 0 0 0 0 0 0 0 0 0 0 0 0 0 0 0 0 
0 8.02949e-79 2.9757e-78 1.01598e-77 3.41982e-77 1.14092e-76 3.77408e-76 1.23782e-75 4.02506e-75 1.29756e-74 4.14666e-74 1.31358e-73 4.12453e-73 1.28358e-72 3.95894e-72 1.21006e-71 3.66509e-71 1.09996e-70 3.27083e-70 9.63601e-70 2.81231e-69 8.13064e-69 2.32837e-68 6.60409e-68 1.85513e-67 5.16067e-67 1.42159e-66 3.87742e-66 1.04708e-65 2.79934e-65 7.40848e-65 1.94075e-64 5.03197e-64 1.29122e-63 3.27884e-63 8.23876e-63 2.04826e-62 5.03797e-62 1.22584e-61 2.95039e-61 7.02353e-61 1.65357e-60 3.8498e-60 8.86266e-60 2.01725e-59 4.53923e-59 1.0097e-58 2.21996e-58 4.82392e-58 1.03589e-57 2.19808e-57 4.60836e-57 9.54501e-57 1.95295e-56 3.94681e-56 7.87764e-56 1.55273e-55 3.02207e-55 5.80727e-55 1.10168e-54 2.06305e-54 3.81321e-54 6.95589e-54 1.25213e-53 2.22403e-53 3.89745e-53 6.73789e-53 1.14903e-52 1.93266e-52 3.20598e-52 5.2445e-52 8.45954e-52 1.3454e-51 2.1095e-51 3.26062e-51 4.96794e-51 7.46072e-51 1.10429e-50 1.61087e-50 2.31572e-50 3.28054e-50 4.57952e-50 6.2994e-50 8.53842e-50 1.14039e-49 1.50082e-49 1.94634e-49 2.48736e-49 3.13268e-49 3.88852e-49 4.75765e-49 5.73846e-49 6.82439e-49 8.00356e-49 9.25879e-49 1.05681e-48 1.19057e-48 1.3243e-48 1.45508e-48 1.58005e-48 1.69665e-48 1.80272e-48 1.8967e-48 1.97766e-48 2.04537e-48 2.10024e-48 2.14327e-48 2.17593e-48 2.19999e-48 2.2174e-48 2.23009e-48 2.23986e-48 2.24829e-48 2.25664e-48 2.26581e-48 2.2764e-48 2.28867e-48 2.30265e-48 2.31817e-48 2.33493e-48 2.35258e-48 2.37079e-48 2.38922e-48 2.40761e-48 2.42573e-48 2.44344e-48 2.46059e-48 2.47706e-48 2.49271e-48 2.50737e-48 2.52079e-48 2.53271e-48 2.5428e-48 2.55067e-48 2.55597e-48 2.55834e-48 2.55747e-48 2.55314e-48 2.54523e-48 2.53375e-48 2.51883e-48 2.50071e-48 2.47973e-48 2.45629e-48 2.43083e-48 2.40377e-48 2.37552e-48 2.34639e-48 2.31668e-48 2.28658e-48 2.25625e-48 2.22582e-48 2.19545e-48 2.16534e-48 2.13575e-48 2.10705e-48 2.07972e-48 2.0543e-48 2.0314e-48 2.01164e-48 1.99558e-48 1.98369e-48 1.97626e-48 1.9734e-48 1.97498e-48 1.98064e-48 1.98984e-48 2.00184e-48 2.01583e-48 2.03094e-48 2.04636e-48 2.06136e-48 2.07537e-48 2.08799e-48 2.09902e-48 2.10841e-48 2.11625e-48 2.12271e-48 2.12797e-48 2.13217e-48 2.13532e-48 2.1373e-48 2.13778e-48 2.13624e-48 2.13197e-48 2.12409e-48 2.11162e-48 2.09351e-48 2.06873e-48 2.03634e-48 1.99552e-48 1.94567e-48 1.88647e-48 1.81787e-48 1.74011e-48 1.65379e-48 1.5598e-48 1.45927e-48 1.35362e-48 1.24442e-48 1.13335e-48 1.02216e-48 9.12567e-49 8.06197e-49 7.04522e-49 6.08805e-49 5.20061e-49 4.39026e-49 3.66154e-49 3.01622e-49 2.45347e-49 1.97025e-49 1.56171e-49 1.22162e-49 9.42901e-50 7.18004e-50 5.39346e-50 3.99618e-50 2.92028e-50 2.10463e-50 1.49581e-50 1.04837e-50 7.24568e-51 4.93816e-51 3.31874e-51 2.19942e-51 1.43742e-51 9.2642e-52 5.88845e-52 3.69133e-52 2.28231e-52 1.39189e-52 8.37333e-53 4.9692e-53 2.90938e-53 1.68064e-53 9.57946e-54 5.38814e-54 2.99091e-54 1.6386e-54 8.86108e-55 4.73024e-55 2.49289e-55 1.29714e-55 6.66463e-56 3.38151e-56 1.69446e-56 8.3865e-57 4.10012e-57 1.98019e-57 9.44668e-58 4.44837e-58 2.0593e-58 9.17625e-59 3.48e-59 0 
0 2.97125e-78 1.10131e-77 3.76087e-77 1.26617e-76 4.22507e-76 1.39791e-75 4.58584e-75 1.49152e-74 4.8093e-74 1.53728e-73 4.87094e-73 1.5298e-72 4.76203e-72 1.46912e-71 4.49157e-71 1.36078e-70 4.08507e-70 1.21507e-69 3.58065e-69 1.04533e-68 3.02303e-68 8.65965e-68 2.45694e-67 6.90386e-67 1.92115e-66 5.29383e-66 1.44439e-65 3.90184e-65 1.0435e-64 2.76261e-64 7.23958e-64 1.87776e-63 4.82017e-63 1.22446e-62 3.07788e-62 7.65499e-62 1.88358e-61 4.58496e-61 1.10397e-60 2.62912e-60 6.19237e-60 1.4423e-59 3.32174e-59 7.56394e-59 1.70278e-58 3.7893e-58 8.33498e-58 1.81198e-57 3.8928e-57 8.26395e-57 1.73335e-56 3.59183e-56 7.3524e-56 1.48656e-55 2.96847e-55 5.85374e-55 1.13983e-54 2.19132e-54 4.15899e-54 7.79182e-54 1.44084e-53 2.62948e-53 4.73543e-53 8.41469e-53 1.47524e-52 2.55146e-52 4.35284e-52 7.32441e-52 1.21548e-51 1.98908e-51 3.20962e-51 5.10633e-51 8.00907e-51 1.23834e-50 1.88732e-50 2.8351e-50 4.19743e-50 6.12436e-50 8.806e-50 1.24772e-49 1.74205e-49 2.39661e-49 3.24877e-49 4.33936e-49 5.71111e-49 7.40651e-49 9.46506e-49 1.192e-48 1.47947e-48 1.80991e-48 2.18268e-48 2.5952e-48 3.0429e-48 3.51918e-48 4.01561e-48 4.52229e-48 5.02838e-48 5.52268e-48 5.99437e-48 6.43369e-48 6.83254e-48 7.18501e-48 7.4877e-48 7.7398e-48 7.94302e-48 8.10128e-48 8.22024e-48 8.30675e-48 8.36823e-48 8.41211e-48 8.44526e-48 8.47365e-48 8.50207e-48 8.53398e-48 8.57155e-48 8.6158e-48 8.66675e-48 8.72373e-48 8.78563e-48 8.85109e-48 8.91876e-48 8.98739e-48 9.05595e-48 9.12361e-48 9.18975e-48 9.25386e-48 9.31545e-48 9.37401e-48 9.42885e-48 9.47914e-48 9.5238e-48 9.56159e-48 9.59114e-48 9.61104e-48 9.61996e-48 9.61675e-48 9.60059e-48 9.57102e-48 9.52808e-48 9.47224e-48 9.40441e-48 9.32587e-48 9.23812e-48 9.14281e-48 9.04154e-48 8.93578e-48 8.82681e-48 8.71563e-48 8.603e-48 8.48951e-48 8.37567e-48 8.26201e-48 8.14929e-48 8.03851e-48 7.93105e-48 7.82867e-48 7.73345e-48 7.64765e-48 7.5736e-48 7.51343e-48 7.46887e-48 7.44107e-48 7.4304e-48 7.43638e-48 7.45771e-48 7.49227e-48 7.53736e-48 7.58988e-48 7.64661e-48 7.70446e-48 7.76072e-48 7.81323e-48 7.86052e-48 7.90181e-48 7.93697e-48 7.96633e-48 7.99056e-48 8.01034e-48 8.02619e-48 8.03822e-48 8.04594e-48 8.04815e-48 8.04291e-48 8.02754e-48 7.99877e-48 7.95288e-48 7.88596e-48 7.79409e-48 7.67369e-48 7.52169e-48 7.33582e-48 7.11473e-48 6.85821e-48 6.56717e-48 6.24373e-48 5.89116e-48 5.51377e-48 5.11674e-48 4.70598e-48 4.28784e-48 3.86887e-48 3.45556e-48 3.05409e-48 2.67003e-48 2.30821e-48 1.9725e-48 1.66575e-48 1.38973e-48 1.14516e-48 9.31763e-49 7.4844e-49 5.93379e-49 4.64251e-49 3.58387e-49 2.72941e-49 2.05046e-49 1.51935e-49 1.11033e-49 8.00216e-50 5.68722e-50 3.9858e-50 2.75452e-50 1.8771e-50 1.26136e-50 8.35817e-51 5.46148e-51 3.51926e-51 2.23642e-51 1.40163e-51 8.66401e-52 5.28243e-52 3.17692e-52 1.88481e-52 1.10319e-52 6.3707e-53 3.63006e-53 2.04111e-53 1.13261e-53 6.20296e-54 3.35318e-54 1.78936e-54 9.42665e-55 4.90321e-55 2.51829e-55 1.27725e-55 6.39784e-56 3.16532e-56 1.54692e-56 7.46811e-57 3.56138e-57 1.67639e-57 7.75776e-58 3.4557e-58 1.31021e-58 0 
0 1.01269e-77 3.75429e-77 1.28234e-76 4.31826e-76 1.4413e-75 4.76985e-75 1.56514e-74 5.09186e-74 1.64227e-73 5.25089e-73 1.66423e-72 5.22829e-72 1.62796e-71 5.02384e-71 1.53642e-70 4.65625e-70 1.39825e-69 4.16032e-69 1.2264e-68 3.58155e-68 1.03612e-67 2.96908e-67 8.42699e-67 2.36881e-66 6.59421e-66 1.81776e-65 4.96159e-65 1.34085e-64 3.58739e-64 9.50131e-64 2.49092e-63 6.46356e-63 1.6599e-62 4.2185e-62 1.06086e-61 2.63967e-61 6.49815e-61 1.5825e-60 3.81217e-60 9.08312e-60 2.14039e-59 4.98777e-59 1.1493e-58 2.6184e-58 5.89752e-58 1.31309e-57 2.88978e-57 6.28552e-57 1.35107e-56 2.8697e-56 6.02238e-56 1.24862e-55 2.55728e-55 5.17329e-55 1.0336e-54 2.03933e-54 3.97309e-54 7.6424e-54 1.45126e-53 2.72037e-53 5.03308e-53 9.19003e-53 1.65589e-52 2.94397e-52 5.16389e-52 8.93547e-52 1.52515e-51 2.56754e-51 4.26275e-51 6.97896e-51 1.12662e-50 1.79313e-50 2.81356e-50 4.35185e-50 6.63487e-50 9.9701e-50 1.47654e-49 2.15498e-49 3.09934e-49 4.39241e-49 6.13378e-49 8.4398e-49 1.14421e-48 1.52845e-48 2.01172e-48 2.60895e-48 3.33399e-48 4.19842e-48 5.21037e-48 6.37317e-48 7.6843e-48 9.13448e-48 1.07073e-47 1.23792e-47 1.41203e-47 1.58955e-47 1.76665e-47 1.93937e-47 2.10391e-47 2.25684e-47 2.39534e-47 2.51735e-47 2.62173e-47 2.70823e-47 2.7775e-47 2.83097e-47 2.87066e-47 2.89904e-47 2.91873e-47 2.93236e-47 2.94236e-47 2.95085e-47 2.95948e-47 2.96948e-47 2.9816e-47 2.99617e-47 3.0132e-47 3.03243e-47 3.05346e-47 3.07581e-47 3.09899e-47 3.12255e-47 3.14612e-47 3.16942e-47 3.19221e-47 3.21431e-47 3.23557e-47 3.25578e-47 3.27473e-47 3.29211e-47 3.30755e-47 3.32063e-47 3.33086e-47 3.33776e-47 3.34087e-47 3.33979e-47 3.33422e-47 3.32402e-47 3.30919e-47 3.2899e-47 3.26647e-47 3.23934e-47 3.20902e-47 3.17609e-47 3.14111e-47 3.10459e-47 3.06696e-47 3.02857e-47 2.98968e-47 2.9505e-47 2.91118e-47 2.87193e-47 2.83299e-47 2.79472e-47 2.75758e-47 2.72219e-47 2.68926e-47 2.65958e-47 2.63397e-47 2.61316e-47 2.59775e-47 2.58814e-47 2.58447e-47 2.58657e-47 2.59399e-47 2.60598e-47 2.62163e-47 2.63984e-47 2.6595e-47 2.67954e-47 2.69901e-47 2.71718e-47 2.73354e-47 2.74781e-47 2.75996e-47 2.77011e-47 2.7785e-47 2.78536e-47 2.7909e-47 2.79515e-47 2.79794e-47 2.79888e-47 2.79729e-47 2.79224e-47 2.7826e-47 2.76709e-47 2.74433e-47 2.71296e-47 2.67174e-47 2.61957e-47 2.55566e-47 2.47952e-47 2.39105e-47 2.29053e-47 2.17868e-47 2.05662e-47 1.9258e-47 1.78803e-47 1.64534e-47 1.49992e-47 1.35407e-47 1.21004e-47 1.07e-47 9.35905e-48 8.09463e-48 6.92048e-48 5.84676e-48 4.87988e-48 4.02256e-48 3.27407e-48 2.63068e-48 2.08621e-48 1.63259e-48 1.26054e-48 9.60149e-49 7.21391e-49 5.34577e-49 3.90681e-49 2.81566e-49 2.00106e-49 1.40233e-49 9.69036e-50 6.60279e-50 4.43624e-50 2.93906e-50 1.92008e-50 1.23698e-50 7.85875e-51 4.92398e-51 3.04281e-51 1.85462e-51 1.11503e-51 6.61298e-52 3.86922e-52 2.23357e-52 1.27221e-52 7.15055e-53 3.96625e-53 2.17129e-53 1.17326e-53 6.25818e-54 3.2955e-54 1.71338e-54 8.79606e-55 4.45929e-55 2.23269e-55 1.10412e-55 5.39352e-56 2.60268e-56 1.24061e-56 5.83713e-57 2.70005e-57 1.20227e-57 4.55697e-58 0 
0 3.40255e-77 1.26166e-76 4.31041e-76 1.45188e-75 4.84713e-75 1.60453e-74 5.26638e-74 1.71377e-73 5.52892e-73 1.76828e-72 5.60607e-72 1.76171e-71 5.48718e-71 1.69386e-70 5.18191e-70 1.57093e-69 4.71901e-69 1.40456e-68 4.14188e-68 1.21001e-67 3.50177e-67 1.00383e-66 2.8502e-66 8.01494e-66 2.23205e-65 6.15535e-65 1.68079e-64 4.54415e-64 1.21629e-63 3.22277e-63 8.45272e-63 2.19434e-62 5.63783e-62 1.43347e-61 3.60656e-61 8.97823e-61 2.21127e-60 5.38778e-60 1.29854e-59 3.09555e-59 7.29824e-59 1.7016e-58 3.92295e-58 8.94222e-58 2.01517e-57 4.48922e-57 9.88508e-57 2.15128e-56 4.62675e-56 9.83278e-56 2.06468e-55 4.28312e-55 8.77718e-55 1.77661e-54 3.5516e-54 7.01145e-54 1.36677e-53 2.63054e-53 4.9981e-53 9.37417e-53 1.73533e-52 3.17034e-52 5.71556e-52 1.01671e-51 1.78431e-51 3.08914e-51 5.27539e-51 8.88539e-51 1.47591e-50 2.4175e-50 3.90436e-50 6.21689e-50 9.75885e-50 1.51004e-49 2.30308e-49 3.462e-49 5.12877e-49 7.48753e-49 1.07716e-48 1.52691e-48 2.13269e-48 2.93497e-48 3.97956e-48 5.31642e-48 6.99776e-48 9.07535e-48 1.15971e-47 1.4603e-47 1.81207e-47 2.21611e-47 2.67148e-47 3.17485e-47 3.72041e-47 4.29987e-47 4.90274e-47 5.51673e-47 6.12843e-47 6.7241e-47 7.29051e-47 7.81578e-47 8.29018e-47 8.70673e-47 9.06154e-47 9.35397e-47 9.58644e-47 9.76406e-47 9.89407e-47 9.98508e-47 1.00464e-46 1.00871e-46 1.01158e-46 1.01398e-46 1.01648e-46 1.01951e-46 1.02332e-46 1.02802e-46 1.03361e-46 1.04e-46 1.04704e-46 1.05455e-46 1.06238e-46 1.07035e-46 1.07834e-46 1.08625e-46 1.094e-46 1.10151e-46 1.10875e-46 1.11563e-46 1.12209e-46 1.12801e-46 1.13328e-46 1.13774e-46 1.14124e-46 1.1436e-46 1.14467e-46 1.14431e-46 1.14242e-46 1.13895e-46 1.1339e-46 1.12733e-46 1.11934e-46 1.11009e-46 1.09976e-46 1.08854e-46 1.07662e-46 1.06418e-46 1.05136e-46 1.03829e-46 1.02504e-46 1.0117e-46 9.9831e-47 9.8494e-47 9.71672e-47 9.58627e-47 9.45966e-47 9.33896e-47 9.22664e-47 9.1254e-47 9.038e-47 8.96699e-47 8.91443e-47 8.8817e-47 8.86925e-47 8.87652e-47 8.90195e-47 8.94304e-47 8.99658e-47 9.05887e-47 9.1261e-47 9.19457e-47 9.2611e-47 9.32312e-47 9.37892e-47 9.42759e-47 9.469e-47 9.50361e-47 9.53224e-47 9.55576e-47 9.57484e-47 9.58965e-47 9.59966e-47 9.60349e-47 9.59885e-47 9.58262e-47 9.5509e-47 9.49928e-47 9.42307e-47 9.3176e-47 9.1785e-47 9.00207e-47 8.78546e-47 8.52693e-47 8.22604e-47 7.88372e-47 7.5023e-47 7.08548e-47 6.63823e-47 6.16663e-47 5.67759e-47 5.17866e-47 4.67767e-47 4.18241e-47 3.70035e-47 3.23831e-47 2.80222e-47 2.3969e-47 2.02593e-47 1.69161e-47 1.39496e-47 1.13579e-47 9.12886e-48 7.24144e-48 5.66821e-48 4.37735e-48 3.33474e-48 2.50579e-48 1.85703e-48 1.35721e-48 9.78153e-49 6.95142e-49 4.87118e-49 3.36575e-49 2.29304e-49 1.54039e-49 1.02033e-49 6.66435e-50 4.29234e-50 2.72628e-50 1.70769e-50 1.05495e-50 6.4279e-51 3.86322e-51 2.29036e-51 1.33957e-51 7.72985e-52 4.40103e-52 2.47261e-52 1.37091e-52 7.5017e-53 4.05176e-53 2.16024e-53 1.13704e-53 5.90895e-54 3.0321e-54 1.53645e-54 7.68911e-55 3.80067e-55 1.85571e-55 8.95064e-56 4.26445e-56 2.00551e-56 9.27258e-57 4.12714e-57 1.56383e-57 0 
0 1.13305e-76 4.20222e-76 1.43601e-75 4.83815e-75 1.61564e-74 5.34963e-74 1.75633e-73 5.71696e-73 1.84492e-72 5.90223e-72 1.87177e-71 5.88384e-71 1.83321e-70 5.66083e-70 1.73235e-69 5.25349e-69 1.57867e-68 4.70038e-68 1.38658e-67 4.05225e-67 1.17316e-66 3.36429e-66 9.55604e-66 2.68829e-65 7.48954e-65 2.06625e-64 5.64453e-64 1.5267e-63 4.08815e-63 1.08371e-62 2.84366e-62 7.38557e-62 1.89844e-61 4.82925e-61 1.21561e-60 3.02766e-60 7.46064e-60 1.81871e-59 4.38564e-59 1.04603e-58 2.46748e-58 5.75605e-58 1.32775e-57 3.02821e-57 6.82801e-57 1.52194e-56 3.35314e-56 7.30155e-56 1.57125e-55 3.34115e-55 7.01982e-55 1.45709e-54 2.9877e-54 6.05104e-54 1.21037e-53 2.39089e-53 4.66343e-53 8.98068e-53 1.70736e-52 3.20411e-52 5.93483e-52 1.08488e-51 1.95696e-51 3.48308e-51 6.11615e-51 1.05945e-50 1.81021e-50 3.05055e-50 5.0697e-50 8.30807e-50 1.34242e-49 2.13851e-49 3.35834e-49 5.1987e-49 7.93203e-49 1.19278e-48 1.76763e-48 2.58138e-48 3.7146e-48 5.26689e-48 7.35797e-48 1.01277e-47 1.37342e-47 1.83497e-47 2.41543e-47 3.1326e-47 4.00294e-47 5.0401e-47 6.25346e-47 7.64657e-47 9.21583e-47 1.09495e-46 1.2827e-46 1.48196e-46 1.68905e-46 1.89972e-46 2.10931e-46 2.31307e-46 2.50643e-46 2.68533e-46 2.84644e-46 2.98739e-46 3.1069e-46 3.2048e-46 3.28199e-46 3.34031e-46 3.38229e-46 3.41096e-46 3.42954e-46 3.44123e-46 3.44897e-46 3.45528e-46 3.46214e-46 3.471e-46 3.4827e-46 3.49764e-46 3.51576e-46 3.53673e-46 3.56004e-46 3.58508e-46 3.61125e-46 3.63799e-46 3.66484e-46 3.69145e-46 3.71754e-46 3.74289e-46 3.76729e-46 3.79054e-46 3.81234e-46 3.83237e-46 3.85019e-46 3.86529e-46 3.87714e-46 3.88515e-46 3.88879e-46 3.8876e-46 3.88124e-46 3.86953e-46 3.85248e-46 3.83029e-46 3.80331e-46 3.77206e-46 3.73715e-46 3.69925e-46 3.65898e-46 3.61696e-46 3.57367e-46 3.52952e-46 3.48481e-46 3.43975e-46 3.39454e-46 3.34938e-46 3.30456e-46 3.26048e-46 3.21769e-46 3.17688e-46 3.13889e-46 3.10465e-46 3.07508e-46 3.05106e-46 3.03328e-46 3.02223e-46 3.01804e-46 3.02054e-46 3.02919e-46 3.04314e-46 3.06131e-46 3.08244e-46 3.10523e-46 3.12843e-46 3.15096e-46 3.17195e-46 3.19082e-46 3.20728e-46 3.22127e-46 3.23297e-46 3.24266e-46 3.25065e-46 3.25718e-46 3.2623e-46 3.26585e-46 3.26738e-46 3.2661e-46 3.26096e-46 3.25065e-46 3.23366e-46 3.20841e-46 3.17328e-46 3.12681e-46 3.06769e-46 2.99495e-46 2.90797e-46 2.80656e-46 2.69102e-46 2.56209e-46 2.421e-46 2.26941e-46 2.10936e-46 1.94319e-46 1.77345e-46 1.60281e-46 1.43393e-46 1.26937e-46 1.11147e-46 9.62299e-47 8.23518e-47 6.96389e-47 5.81725e-47 4.79902e-47 3.90884e-47 3.14272e-47 2.49366e-47 1.95238e-47 1.50806e-47 1.14905e-47 8.6352e-48 6.40001e-48 4.67765e-48 3.37122e-48 2.39573e-48 1.67868e-48 1.15976e-48 7.90024e-49 5.30621e-49 3.51406e-49 2.29471e-49 1.47759e-49 9.38232e-50 5.87512e-50 3.62828e-50 2.20998e-50 1.32774e-50 7.8687e-51 4.60039e-51 2.65352e-51 1.51016e-51 8.48081e-52 4.70003e-52 2.57072e-52 1.38784e-52 7.39597e-53 3.89104e-53 2.02112e-53 1.03661e-53 5.25025e-54 2.6262e-54 1.29748e-54 6.33196e-55 3.0526e-55 1.45367e-55 6.83312e-56 3.15785e-56 1.40493e-56 5.32176e-57 0 
0 3.74098e-76 1.38772e-75 4.7434e-75 1.59854e-74 5.33954e-74 1.76848e-73 5.80768e-73 1.89098e-72 6.10417e-72 1.95342e-71 6.19676e-71 1.94854e-70 6.07296e-70 1.8759e-69 5.74264e-69 1.7421e-68 5.23684e-68 1.5598e-67 4.60298e-67 1.34572e-66 3.89745e-66 1.11812e-65 3.17721e-65 8.94173e-65 2.49219e-64 6.87851e-64 1.87986e-63 5.08679e-63 1.36274e-62 3.61408e-62 9.48777e-62 2.46534e-61 6.34015e-61 1.6136e-60 4.06376e-60 1.01265e-59 2.49662e-59 6.0893e-59 1.46915e-58 3.50598e-58 8.27479e-58 1.93138e-57 4.45761e-57 1.01723e-56 2.29496e-56 5.11833e-56 1.12833e-55 2.45842e-55 5.2935e-55 1.1263e-54 2.3678e-54 4.91779e-54 1.00898e-53 2.04475e-53 4.09256e-53 8.08912e-53 1.57875e-52 3.04215e-52 5.78711e-52 1.08669e-51 2.01404e-51 3.68385e-51 6.64903e-51 1.18411e-50 2.08045e-50 3.60583e-50 6.16444e-50 1.03939e-49 1.72826e-49 2.83367e-49 4.58092e-49 7.30095e-49 1.14707e-48 1.77642e-48 2.71152e-48 4.079e-48 6.04697e-48 8.83358e-48 1.27152e-47 1.80334e-47 2.51986e-47 3.46904e-47 4.70505e-47 6.28689e-47 8.27614e-47 1.07336e-46 1.37154e-46 1.72678e-46 2.14223e-46 2.61901e-46 3.1558e-46 3.74843e-46 4.38978e-46 5.0698e-46 5.77582e-46 6.49313e-46 7.20572e-46 7.8973e-46 8.55223e-46 9.15664e-46 9.69924e-46 1.01721e-45 1.0571e-45 1.08957e-45 1.11494e-45 1.13386e-45 1.14722e-45 1.15607e-45 1.16152e-45 1.16469e-45 1.16658e-45 1.16804e-45 1.16977e-45 1.17225e-45 1.17575e-45 1.18041e-45 1.18621e-45 1.19302e-45 1.20067e-45 1.20893e-45 1.2176e-45 1.22649e-45 1.23544e-45 1.24432e-45 1.25303e-45 1.26151e-45 1.26967e-45 1.27746e-45 1.28476e-45 1.29148e-45 1.29745e-45 1.30252e-45 1.30651e-45 1.3092e-45 1.31043e-45 1.31005e-45 1.30792e-45 1.304e-45 1.29829e-45 1.29086e-45 1.28182e-45 1.27135e-45 1.25965e-45 1.24695e-45 1.23346e-45 1.21938e-45 1.20488e-45 1.1901e-45 1.17513e-45 1.16004e-45 1.1449e-45 1.12977e-45 1.11475e-45 1.09998e-45 1.08564e-45 1.07195e-45 1.05921e-45 1.04772e-45 1.0378e-45 1.02974e-45 1.02378e-45 1.02007e-45 1.01868e-45 1.01953e-45 1.02245e-45 1.02715e-45 1.03326e-45 1.04037e-45 1.04803e-45 1.05583e-45 1.0634e-45 1.07045e-45 1.07678e-45 1.08229e-45 1.08698e-45 1.09091e-45 1.09416e-45 1.09685e-45 1.09907e-45 1.10083e-45 1.10208e-45 1.10267e-45 1.10235e-45 1.10075e-45 1.09744e-45 1.09191e-45 1.08362e-45 1.07204e-45 1.05665e-45 1.03702e-45 1.01281e-45 9.83807e-46 9.49928e-46 9.11262e-46 8.6805e-46 8.20694e-46 7.69743e-46 7.15875e-46 6.59873e-46 6.02595e-46 5.4494e-46 4.87813e-46 4.32082e-46 3.78551e-46 3.27923e-46 2.80776e-46 2.37547e-46 1.98523e-46 1.63843e-46 1.33501e-46 1.07371e-46 8.52212e-47 6.67395e-47 5.15615e-47 3.92931e-47 2.95328e-47 2.18901e-47 1.59997e-47 1.15311e-47 8.19416e-48 5.74118e-48 3.96601e-48 2.70123e-48 1.81397e-48 1.20106e-48 7.84113e-49 5.04767e-49 3.20421e-49 2.00582e-49 1.23831e-49 7.53989e-50 4.5282e-50 2.68254e-50 1.56769e-50 9.03869e-51 5.14184e-51 2.88627e-51 1.59883e-51 8.74083e-52 4.71662e-52 2.51234e-52 1.3211e-52 6.85882e-53 3.51607e-53 1.77994e-53 8.89887e-54 4.39429e-54 2.14342e-54 1.03281e-54 4.91586e-55 2.3096e-55 1.06684e-55 4.74428e-56 1.7965e-56 0 
0 1.22461e-75 4.54369e-75 1.55348e-74 5.23664e-74 1.74965e-73 5.79654e-73 1.90412e-72 6.20164e-72 2.00252e-71 6.41029e-71 2.03416e-70 6.39836e-70 1.99482e-69 6.16397e-69 1.8876e-68 5.72832e-68 1.72258e-67 5.1326e-67 1.51521e-66 4.43155e-66 1.28397e-65 3.68499e-65 1.04754e-64 2.94937e-64 8.22384e-64 2.27079e-63 6.20872e-63 1.6808e-62 4.5049e-62 1.19529e-61 3.13942e-61 8.16157e-61 2.09996e-60 5.34721e-60 1.34736e-59 3.35924e-59 8.28635e-59 2.02214e-58 4.88144e-58 1.16555e-57 2.75247e-57 6.42808e-57 1.48445e-56 3.38949e-56 7.6515e-56 1.70749e-55 3.76642e-55 8.2113e-55 1.76915e-54 3.76656e-54 7.92327e-54 1.64665e-53 3.38055e-53 6.85516e-53 1.37292e-52 2.71536e-52 5.30289e-52 1.02248e-51 1.9463e-51 3.65702e-51 6.78203e-51 1.24126e-50 2.24173e-50 3.99466e-50 7.02268e-50 1.21789e-49 2.08327e-49 3.51456e-49 5.84711e-49 9.59204e-49 1.55145e-48 2.47388e-48 3.88861e-48 6.02485e-48 9.20016e-48 1.38455e-47 2.0533e-47 3.00053e-47 4.32033e-47 6.12896e-47 8.56619e-47 1.17952e-46 1.60002e-46 2.13818e-46 2.81492e-46 3.65084e-46 4.66491e-46 5.87271e-46 7.28472e-46 8.90447e-46 1.07271e-45 1.27379e-45 1.49124e-45 1.72157e-45 1.96045e-45 2.20283e-45 2.44325e-45 2.67614e-45 2.89621e-45 3.09875e-45 3.27998e-45 3.43726e-45 3.56923e-45 3.67585e-45 3.75832e-45 3.81893e-45 3.86076e-45 3.88744e-45 3.90282e-45 3.91066e-45 3.9144e-45 3.91697e-45 3.92067e-45 3.92713e-45 3.9373e-45 3.95158e-45 3.96987e-45 3.99175e-45 4.01656e-45 4.04357e-45 4.07205e-45 4.10135e-45 4.13089e-45 4.16027e-45 4.18914e-45 4.21723e-45 4.24433e-45 4.27017e-45 4.29444e-45 4.31676e-45 4.33665e-45 4.35354e-45 4.3668e-45 4.37581e-45 4.37994e-45 4.37868e-45 4.37166e-45 4.35866e-45 4.3397e-45 4.31499e-45 4.28494e-45 4.25014e-45 4.21127e-45 4.16906e-45 4.12424e-45 4.07747e-45 4.02931e-45 3.98021e-45 3.93048e-45 3.88037e-45 3.83008e-45 3.77984e-45 3.72995e-45 3.68085e-45 3.63315e-45 3.58764e-45 3.54525e-45 3.50702e-45 3.474e-45 3.44718e-45 3.42735e-45 3.41503e-45 3.41042e-45 3.41329e-45 3.42306e-45 3.43877e-45 3.4592e-45 3.48292e-45 3.50847e-45 3.53447e-45 3.55968e-45 3.58313e-45 3.6042e-45 3.62254e-45 3.63814e-45 3.65118e-45 3.66202e-45 3.67103e-45 3.67848e-45 3.68448e-45 3.68885e-45 3.6911e-45 3.69038e-45 3.68552e-45 3.67503e-45 3.65723e-45 3.63032e-45 3.59249e-45 3.54204e-45 3.47747e-45 3.39762e-45 3.30174e-45 3.18955e-45 3.06127e-45 2.91768e-45 2.76008e-45 2.59026e-45 2.41046e-45 2.22327e-45 2.03157e-45 1.83834e-45 1.64665e-45 1.45941e-45 1.27936e-45 1.10888e-45 9.49962e-46 8.04109e-46 6.72327e-46 5.55114e-46 4.5249e-46 3.64051e-46 2.89036e-46 2.26412e-46 1.74958e-46 1.33351e-46 1.00239e-46 7.43047e-47 5.43121e-47 3.9143e-47 2.78144e-47 1.94864e-47 1.34596e-47 9.16589e-48 6.15404e-48 4.07381e-48 2.65894e-48 1.71121e-48 1.08593e-48 6.79566e-49 4.19391e-49 2.55266e-49 1.53244e-49 9.07463e-50 5.30102e-50 3.05503e-50 1.73713e-50 9.74652e-51 5.39646e-51 2.94883e-51 1.59043e-51 8.46734e-52 4.45027e-52 2.30929e-52 1.18321e-52 5.98669e-53 2.99152e-53 1.47645e-53 7.19802e-54 3.46657e-54 1.64913e-54 7.74405e-55 3.57531e-55 1.58924e-55 6.01584e-56 0 
0 3.97431e-75 1.47492e-74 5.04403e-74 1.70076e-73 5.68411e-73 1.88367e-72 6.18954e-72 2.01651e-71 6.51332e-71 2.08565e-70 6.62045e-70 2.08313e-69 6.49676e-69 2.00819e-68 6.15189e-68 1.86759e-67 5.61817e-67 1.67463e-66 4.94563e-66 1.44702e-65 4.1942e-65 1.20423e-64 3.42476e-64 9.64659e-64 2.69098e-63 7.43373e-63 2.03343e-62 5.5074e-62 1.4768e-61 3.92032e-61 1.03017e-60 2.67949e-60 6.89782e-60 1.75733e-59 4.43034e-59 1.10517e-58 2.72764e-58 6.66003e-58 1.60863e-57 3.84315e-57 9.08091e-57 2.12199e-56 4.90326e-56 1.12025e-55 2.53041e-55 5.65027e-55 1.24712e-54 2.72059e-54 5.86532e-54 1.24953e-53 2.63018e-53 5.46968e-53 1.12365e-52 2.28005e-52 4.56937e-52 9.04317e-52 1.76722e-51 3.40971e-51 6.49462e-51 1.2211e-50 2.26603e-50 4.14998e-50 7.4997e-50 1.33725e-49 2.35236e-49 4.08199e-49 6.98665e-49 1.17937e-48 1.96321e-48 3.22237e-48 5.21476e-48 8.31952e-48 1.30836e-47 2.02807e-47 3.0983e-47 4.66462e-47 6.92033e-47 1.01164e-46 1.45708e-46 2.06764e-46 2.89055e-46 3.98094e-46 5.40103e-46 7.21851e-46 9.50384e-46 1.23264e-45 1.57498e-45 1.98262e-45 2.45899e-45 3.00519e-45 3.61944e-45 4.29667e-45 5.02839e-45 5.80272e-45 6.60484e-45 7.41758e-45 8.22243e-45 9.00058e-45 9.73414e-45 1.04074e-44 1.10076e-44 1.15262e-44 1.19587e-44 1.23054e-44 1.25705e-44 1.27621e-44 1.28907e-44 1.29689e-44 1.30098e-44 1.3026e-44 1.30293e-44 1.30296e-44 1.30346e-44 1.30497e-44 1.3078e-44 1.31208e-44 1.31776e-44 1.3247e-44 1.33267e-44 1.34142e-44 1.35068e-44 1.36025e-44 1.36992e-44 1.37956e-44 1.38904e-44 1.39828e-44 1.40719e-44 1.4157e-44 1.4237e-44 1.43106e-44 1.43762e-44 1.4432e-44 1.44758e-44 1.45056e-44 1.45194e-44 1.45154e-44 1.44923e-44 1.44495e-44 1.43871e-44 1.43057e-44 1.42067e-44 1.40919e-44 1.39638e-44 1.38247e-44 1.3677e-44 1.35229e-44 1.33643e-44 1.32026e-44 1.30388e-44 1.28738e-44 1.27081e-44 1.25426e-44 1.23782e-44 1.22164e-44 1.20591e-44 1.1909e-44 1.17692e-44 1.1643e-44 1.1534e-44 1.14455e-44 1.13801e-44 1.13395e-44 1.13244e-44 1.1334e-44 1.13664e-44 1.14185e-44 1.14861e-44 1.15647e-44 1.16492e-44 1.17351e-44 1.18184e-44 1.18959e-44 1.19654e-44 1.20259e-44 1.20773e-44 1.21203e-44 1.21561e-44 1.2186e-44 1.22109e-44 1.22312e-44 1.22463e-44 1.22548e-44 1.22537e-44 1.22392e-44 1.22064e-44 1.21498e-44 1.20633e-44 1.1941e-44 1.17772e-44 1.15668e-44 1.13058e-44 1.09918e-44 1.06235e-44 1.02017e-44 9.72866e-45 9.20863e-45 8.6474e-45 8.05228e-45 7.43181e-45 6.79544e-45 6.15315e-45 5.51509e-45 4.89108e-45 4.29028e-45 3.72077e-45 3.18931e-45 2.70105e-45 2.25948e-45 1.86639e-45 1.52196e-45 1.22493e-45 9.72829e-46 7.62251e-46 5.89152e-46 4.49122e-46 3.37645e-46 2.50307e-46 1.82965e-46 1.31863e-46 9.36955e-47 6.56361e-47 4.53305e-47 3.08647e-47 2.07188e-47 1.37122e-47 8.94751e-48 5.75666e-48 3.65203e-48 2.28464e-48 1.40944e-48 8.57542e-49 5.14603e-49 3.04603e-49 1.77859e-49 1.02455e-49 5.82301e-50 3.26556e-50 1.80719e-50 9.87027e-51 5.32076e-51 2.83127e-51 1.48729e-51 7.71362e-52 3.95015e-52 1.99759e-52 9.97651e-53 4.92124e-53 2.39792e-53 1.15422e-53 5.48796e-54 2.5757e-54 1.18855e-54 5.28068e-55 1.99822e-55 0 
0 1.27865e-74 4.74633e-74 1.62361e-73 5.47605e-73 1.83068e-72 6.06848e-72 1.99464e-71 6.50039e-71 2.10029e-70 6.72757e-70 2.13623e-69 6.72393e-69 2.09776e-68 6.48659e-68 1.98783e-67 6.03689e-67 1.81673e-66 5.41731e-66 1.60051e-65 4.68478e-65 1.35845e-64 3.90201e-64 1.11019e-63 3.12846e-63 8.73099e-63 2.41301e-62 6.60369e-62 1.78941e-61 4.80062e-61 1.27501e-60 3.35213e-60 8.72343e-60 2.24685e-59 5.72726e-59 1.44467e-58 3.60577e-58 8.90432e-58 2.17539e-57 5.25736e-57 1.25676e-56 2.97136e-56 6.94751e-56 1.60634e-55 3.67228e-55 8.30011e-55 1.85455e-54 4.09595e-54 8.94109e-54 1.92886e-53 4.1119e-53 8.66102e-53 1.80233e-52 3.70504e-52 7.52313e-52 1.5087e-51 2.98788e-51 5.84287e-51 1.1281e-50 2.15019e-50 4.04546e-50 7.51227e-50 1.3767e-49 2.48956e-49 4.44196e-49 7.81889e-49 1.35765e-48 2.32516e-48 3.92732e-48 6.54139e-48 1.07431e-47 1.73952e-47 2.77668e-47 4.36895e-47 6.77553e-47 1.03558e-46 1.55979e-46 2.315e-46 3.38539e-46 4.87765e-46 6.92358e-46 9.68163e-46 1.33366e-45 1.80972e-45 2.419e-45 3.18509e-45 4.13115e-45 5.27837e-45 6.64398e-45 8.23926e-45 1.00675e-44 1.21223e-44 1.43861e-44 1.68299e-44 1.94134e-44 2.20863e-44 2.47907e-44 2.74642e-44 3.00437e-44 3.24693e-44 3.46886e-44 3.66598e-44 3.83543e-44 3.97587e-44 4.08744e-44 4.17168e-44 4.23136e-44 4.27014e-44 4.29223e-44 4.30209e-44 4.30402e-44 4.30195e-44 4.29917e-44 4.29825e-44 4.30099e-44 4.30841e-44 4.32089e-44 4.33827e-44 4.36e-44 4.38532e-44 4.41335e-44 4.44323e-44 4.47419e-44 4.50559e-44 4.53691e-44 4.56778e-44 4.59789e-44 4.62697e-44 4.65475e-44 4.68089e-44 4.70495e-44 4.72642e-44 4.74469e-44 4.75906e-44 4.76885e-44 4.77339e-44 4.77212e-44 4.76462e-44 4.75067e-44 4.73027e-44 4.70367e-44 4.67131e-44 4.63382e-44 4.59194e-44 4.54648e-44 4.49822e-44 4.44788e-44 4.39606e-44 4.34324e-44 4.28976e-44 4.23587e-44 4.18177e-44 4.1277e-44 4.07398e-44 4.02109e-44 3.96966e-44 3.92057e-44 3.87481e-44 3.83352e-44 3.79786e-44 3.76888e-44 3.74748e-44 3.73422e-44 3.7293e-44 3.73251e-44 3.74319e-44 3.76031e-44 3.78252e-44 3.80829e-44 3.83602e-44 3.8642e-44 3.89149e-44 3.91685e-44 3.93959e-44 3.95937e-44 3.97618e-44 3.99025e-44 4.00199e-44 4.01181e-44 4.02007e-44 4.02688e-44 4.0321e-44 4.03519e-44 4.03528e-44 4.03107e-44 4.02099e-44 4.0032e-44 3.97574e-44 3.93661e-44 3.88391e-44 3.816e-44 3.73153e-44 3.6296e-44 3.50981e-44 3.37232e-44 3.21786e-44 3.04775e-44 2.86386e-44 2.66855e-44 2.46459e-44 2.2551e-44 2.04335e-44 1.83269e-44 1.6264e-44 1.42753e-44 1.23879e-44 1.06246e-44 9.00296e-45 7.53494e-45 6.22693e-45 5.0799e-45 4.08999e-45 3.24927e-45 2.54662e-45 1.96875e-45 1.50108e-45 1.12864e-45 8.36762e-46 6.11664e-46 4.40822e-46 3.13211e-46 2.19392e-46 1.51499e-46 1.03136e-46 6.92187e-47 4.57996e-47 2.98773e-47 1.92168e-47 1.21872e-47 7.62138e-48 4.70003e-48 2.85848e-48 1.71463e-48 1.01448e-48 5.92089e-49 3.40912e-49 1.93663e-49 1.08553e-49 6.00439e-50 3.2777e-50 1.76598e-50 9.39211e-51 4.93109e-51 2.55606e-51 1.30824e-51 6.61214e-52 3.30047e-52 1.62716e-52 7.92411e-53 3.81211e-53 1.81154e-53 8.49758e-54 3.91912e-54 1.74041e-54 6.58335e-55 0 