# vtk DataFile Version 3.0
Gray-Scott Simulation Output
ASCII
DATASET STRUCTURED_POINTS
DIMENSIONS 256 256 1
SPACING 1.0 1.0 1.0
ORIGIN 0 0 0
POINT_DATA 65536
SCALARS u double
LOOKUP_TABLE default
0 0 0 0 0 0 0 0 0 0 0 0 0 0 0 0 0 0 0 0 0 0 0 0 0 0 0 0 0 0 0 0 0 0 0 0 0 0 0 0 0 0 0 0 0 0 0 0 0 0 0 0 0 0 0 0 0 0 0 0 0 0 0 0 0 0 0 0 0 0 0 0 0 0 0 0 0 0 0 0 0 0 0 0 0 0 0 0 0 0 0 0 0 0 0 0 0 0 0 0 0 0 0 0 0 0 0 0 0 0 0 0 0 0 0 0 0 0 0 0 0 0 0 0 0 0 0 0 0 0 0 0 0 0 0 0 0 0 0 0 0 0 0 0 0 0 0 0 0 0 0 0 0 0 0 0 0 0 0 0 0 0 0 0 0 0 0 0 0 0 0 0 0 0 0 0 0 0 0 0 0 0 0 0 0 0 0 0 0 0 0 0 0 0 0 0 0 0 0 0 0 0 0 0 0 0 0 0 0 0 0 0 0 0 0 0 0 0 0 0 0 0 0 0 0 0 0 0 0 0 0 0 0 0 0 0 0 0 0 0 0 0 0 0 0 0 0 0 0 0 0 0 0 0 0 0 
0 6.9572e-198 1.78293e-196 4.51157e-195 1.12879e-193 2.79218e-192 6.82773e-191 1.6503e-189 3.94235e-188 9.30688e-187 2.17101e-185 5.0035e-184 1.13918e-182 2.56187e-181 5.69012e-180 1.24803e-178 2.70278e-177 5.77859e-176 1.21954e-174 2.54025e-173 5.22151e-172 1.05899e-170 2.11884e-169 4.18164e-168 8.13895e-167 1.56204e-165 2.9556e-164 5.51255e-163 1.0133e-161 1.83535e-160 3.27506e-159 5.75643e-158 9.96402e-157 1.69815e-155 2.84895e-154 4.70402e-153 7.64245e-152 1.22145e-150 1.91998e-149 2.96748e-148 4.50861e-147 6.73206e-146 9.87617e-145 1.42313e-143 2.01368e-142 2.79704e-141 3.81274e-140 5.09882e-139 6.68733e-138 8.59881e-137 1.08361e-135 1.33784e-134 1.61755e-133 1.91456e-132 2.21746e-131 2.51209e-130 2.78235e-129 3.01153e-128 3.18382e-127 3.28607e-126 3.30936e-125 3.2502e-124 3.11116e-123 2.90081e-122 2.63283e-121 2.32458e-120 1.99517e-119 1.66343e-118 1.34613e-117 1.05648e-116 8.03449e-116 5.91528e-115 4.21202e-114 2.89772e-113 1.92397e-112 1.23142e-111 7.58832e-111 4.49611e-110 2.55781e-109 1.39502e-108 7.28227e-108 3.63222e-107 1.72776e-106 7.82208e-106 3.36317e-105 1.37008e-104 5.27496e-104 1.91422e-103 6.52831e-103 2.08589e-102 6.22336e-102 1.72779e-101 4.44758e-101 1.05766e-100 2.31542e-100 4.65157e-100 8.55411e-100 1.43797e-99 2.21003e-99 3.11193e-99 4.03087e-99 4.8295e-99 5.38518e-99 5.62315e-99 5.53621e-99 5.18853e-99 4.69832e-99 4.19919e-99 3.79685e-99 3.54454e-99 3.44552e-99 3.47204e-99 3.58688e-99 3.76088e-99 3.98248e-99 4.25289e-99 4.56633e-99 4.88953e-99 5.16147e-99 5.32026e-99 5.34083e-99 5.25545e-99 5.1385e-99 5.06214e-99 5.05456e-99 5.09324e-99 5.13535e-99 5.15453e-99 5.152e-99 5.14241e-99 5.14041e-99 5.16391e-99 5.24141e-99 5.40423e-99 5.66396e-99 5.99256e-99 6.32058e-99 6.55738e-99 6.62656e-99 6.50111e-99 6.2177e-99 5.85724e-99 5.50066e-99 5.19056e-99 4.92691e-99 4.69426e-99 4.49077e-99 4.33357e-99 4.24232e-99 4.22065e-99 4.25194e-99 4.31192e-99 4.38606e-99 4.47162e-99 4.55719e-99 4.60042e-99 4.53426e-99 4.30602e-99 3.91917e-99 3.44195e-99 2.97661e-99 2.61554e-99 2.41447e-99 2.39095e-99 2.53637e-99 2.82708e-99 3.22862e-99 3.69343e-99 4.15787e-99 4.54852e-99 4.80373e-99 4.89849e-99 4.85046e-99 4.70104e-99 4.49023e-99 4.24797e-99 4.00172e-99 3.78343e-99 3.62536e-99 3.55007e-99 3.56388e-99 3.65606e-99 3.80147e-99 3.96818e-99 4.13273e-99 4.29637e-99 4.48501e-99 4.72114e-99 4.98241e-99 5.18652e-99 5.22784e-99 5.04338e-99 4.65343e-99 4.14452e-99 3.6144e-99 3.1248e-99 2.68941e-99 2.29185e-99 1.91146e-99 1.53983e-99 1.18356e-99 8.58676e-100 5.8257e-100 3.6687e-100 2.13343e-100 1.14245e-100 5.62977e-101 2.55529e-101 1.07045e-101 4.1501e-102 1.49365e-102 5.00651e-103 1.5679e-103 4.60207e-104 1.26982e-104 3.30299e-105 8.12086e-106 1.89191e-106 4.18609e-107 8.81567e-108 1.77056e-108 3.39771e-109 6.2407e-110 1.09889e-110 1.85785e-111 3.02002e-112 4.72639e-113 7.13033e-114 1.03814e-114 1.4603e-115 1.98663e-116 2.6164e-117 3.33889e-118 4.13227e-119 4.96386e-120 5.79207e-121 6.56981e-122 7.24905e-123 7.7859e-124 8.14542e-125 8.30534e-126 8.25833e-127 8.01232e-128 7.589e-129 7.02087e-130 6.34729e-131 5.61018e-132 4.85011e-133 4.10296e-134 3.39775e-135 2.75554e-136 2.18932e-137 1.70473e-138 1.30133e-139 9.69129e-141 0 
0 1.7828e-196 4.56388e-195 1.15361e-193 2.88322e-192 7.1243e-191 1.74024e-189 4.20174e-188 1.00267e-186 2.36451e-185 5.50979e-184 1.26848e-182 2.88496e-181 6.48105e-180 1.43796e-178 3.15059e-177 6.81583e-176 1.4557e-174 3.06894e-173 6.38572e-172 1.31121e-170 2.65652e-169 5.30962e-168 1.04679e-166 2.03529e-165 3.90208e-164 7.3756e-163 1.37421e-161 2.52341e-160 4.56583e-159 8.13899e-158 1.42908e-156 2.47109e-155 4.2071e-154 7.05093e-153 1.16302e-151 1.88758e-150 3.01372e-149 4.73239e-148 7.30686e-147 1.10903e-145 1.65428e-144 2.42443e-143 3.49001e-142 4.93328e-141 6.84554e-140 9.32203e-139 1.2454e-137 1.63176e-136 2.09609e-135 2.63885e-134 3.2547e-133 3.9313e-132 4.64855e-131 5.37869e-130 6.08736e-129 6.73568e-128 7.28335e-127 7.69254e-126 7.93189e-125 7.98037e-124 7.83013e-123 7.48796e-122 6.97499e-121 6.32459e-120 5.57879e-119 4.78369e-118 3.98454e-117 3.22143e-116 2.52592e-115 1.91915e-114 1.41164e-113 1.00424e-112 6.90249e-112 4.57878e-111 2.92796e-110 1.80265e-109 1.06713e-108 6.06543e-108 3.30515e-107 1.72385e-106 8.59075e-106 4.08293e-105 1.84691e-104 7.93439e-104 3.22967e-103 1.24247e-102 4.50527e-102 1.53533e-101 4.90199e-101 1.46151e-100 4.05485e-100 1.04312e-99 2.47913e-99 5.42438e-99 1.08922e-98 2.00223e-98 3.36469e-98 5.16993e-98 7.27846e-98 9.42678e-98 1.12939e-97 1.25932e-97 1.31498e-97 1.29469e-97 1.21344e-97 1.09886e-97 9.82186e-98 8.88126e-98 8.29138e-98 8.05994e-98 8.12199e-98 8.39043e-98 8.79712e-98 9.31504e-98 9.947e-98 1.06795e-97 1.14348e-97 1.20705e-97 1.24422e-97 1.24913e-97 1.2293e-97 1.20208e-97 1.1843e-97 1.18253e-97 1.19156e-97 1.20138e-97 1.20587e-97 1.20529e-97 1.20305e-97 1.20259e-97 1.2081e-97 1.22624e-97 1.26433e-97 1.32504e-97 1.40184e-97 1.47848e-97 1.53381e-97 1.54998e-97 1.5207e-97 1.4545e-97 1.37028e-97 1.28692e-97 1.21438e-97 1.15267e-97 1.09823e-97 1.05062e-97 1.01386e-97 9.92518e-98 9.87439e-98 9.9474e-98 1.00876e-97 1.02609e-97 1.04607e-97 1.066e-97 1.07598e-97 1.06037e-97 1.0069e-97 9.16393e-98 8.04797e-98 6.95994e-98 6.1157e-98 5.64552e-98 5.59056e-98 5.93068e-98 6.61061e-98 7.5497e-98 8.63675e-98 9.72291e-98 1.06366e-97 1.12339e-97 1.1456e-97 1.13443e-97 1.09952e-97 1.05023e-97 9.93566e-98 9.35966e-98 8.84904e-98 8.47922e-98 8.30292e-98 8.33497e-98 8.55034e-98 8.89026e-98 9.28019e-98 9.66537e-98 1.00487e-97 1.04904e-97 1.10427e-97 1.16532e-97 1.21295e-97 1.22255e-97 1.17941e-97 1.08828e-97 9.69335e-98 8.45407e-98 7.30913e-98 6.29073e-98 5.36072e-98 4.47098e-98 3.60181e-98 2.76862e-98 2.00884e-98 1.36311e-98 8.586e-99 4.99442e-99 2.67549e-99 1.319e-99 5.98979e-100 2.51063e-100 9.73949e-101 3.50758e-101 1.1765e-101 3.6871e-102 1.08304e-102 2.99065e-103 7.78527e-104 1.91566e-104 4.46658e-105 9.8911e-106 2.08478e-106 4.19073e-107 8.049e-108 1.47969e-108 2.60783e-109 4.41288e-110 7.17983e-111 1.12468e-111 1.69827e-112 2.47487e-113 3.48451e-114 4.74484e-115 6.25484e-116 7.98957e-117 9.89738e-118 1.19005e-118 1.38993e-119 1.57807e-120 1.7429e-121 1.87378e-122 1.9622e-123 2.00267e-124 1.99328e-125 1.93579e-126 1.83531e-127 1.69959e-128 1.53804e-129 1.36078e-130 1.17758e-131 9.97168e-133 8.266e-134 6.71034e-135 5.33679e-136 4.1597e-137 3.17855e-138 2.36951e-139 0 
0 4.51093e-195 1.15353e-193 2.91264e-192 7.27169e-191 1.79487e-189 4.37957e-188 1.0563e-186 2.51795e-185 5.93155e-184 1.38069e-182 3.17529e-181 7.21399e-180 1.6189e-178 3.58806e-177 7.85312e-176 1.69711e-174 3.62078e-173 7.62537e-172 1.58498e-170 3.2511e-169 6.57981e-168 1.31374e-166 2.5873e-165 5.02529e-164 9.6245e-163 1.8173e-161 3.38244e-160 6.20458e-159 1.12149e-157 1.99708e-156 3.50292e-155 6.05084e-154 1.02911e-152 1.72297e-151 2.83904e-150 4.60305e-149 7.34176e-148 1.15169e-146 1.7764e-145 2.69348e-144 4.01363e-143 5.87622e-142 8.45036e-141 1.19329e-139 1.65417e-138 2.25033e-137 3.00337e-136 3.93118e-135 5.04478e-134 6.34474e-133 7.81771e-132 9.43352e-131 1.11436e-129 1.28812e-128 1.4564e-127 1.60993e-126 1.73913e-125 1.83505e-124 1.8903e-123 1.90001e-122 1.86244e-121 1.77934e-120 1.65585e-119 1.50001e-118 1.32187e-117 1.1324e-116 9.4233e-116 7.61141e-115 5.96248e-114 4.52598e-113 3.32601e-112 2.36394e-111 1.62332e-110 1.07585e-109 6.87342e-109 4.22794e-108 2.5006e-107 1.42005e-106 7.73128e-106 4.02886e-105 2.00604e-104 9.52598e-104 4.30546e-103 1.84811e-102 7.51656e-102 2.88936e-101 1.04689e-100 3.56492e-100 1.13738e-99 3.38865e-99 9.39528e-99 2.41542e-98 5.73726e-98 1.25465e-97 2.51815e-97 4.62706e-97 7.77309e-97 1.19406e-96 1.68076e-96 2.17662e-96 2.6076e-96 2.90753e-96 3.03608e-96 2.98933e-96 2.80188e-96 2.53748e-96 2.2682e-96 2.05109e-96 1.91494e-96 1.86153e-96 1.87586e-96 1.93782e-96 2.03167e-96 2.15118e-96 2.29699e-96 2.466e-96 2.64028e-96 2.787e-96 2.87289e-96 2.88444e-96 2.83898e-96 2.77644e-96 2.73555e-96 2.73152e-96 2.75229e-96 2.77494e-96 2.78529e-96 2.78397e-96 2.77883e-96 2.77779e-96 2.79055e-96 2.83247e-96 2.92042e-96 3.06055e-96 3.23773e-96 3.41455e-96 3.54218e-96 3.5795e-96 3.51199e-96 3.35935e-96 3.16508e-96 2.97267e-96 2.80513e-96 2.66254e-96 2.53673e-96 2.42678e-96 2.3419e-96 2.29263e-96 2.28088e-96 2.2977e-96 2.33005e-96 2.37005e-96 2.41611e-96 2.46193e-96 2.48467e-96 2.44831e-96 2.32463e-96 2.11557e-96 1.85792e-96 1.60674e-96 1.41185e-96 1.3033e-96 1.29062e-96 1.36916e-96 1.52616e-96 1.74301e-96 1.99401e-96 2.2448e-96 2.45581e-96 2.5938e-96 2.64523e-96 2.61956e-96 2.53904e-96 2.42526e-96 2.29441e-96 2.16139e-96 2.04347e-96 1.95804e-96 1.91728e-96 1.92463e-96 1.9743e-96 2.05275e-96 2.14279e-96 2.23182e-96 2.32047e-96 2.4226e-96 2.55014e-96 2.69094e-96 2.80072e-96 2.82271e-96 2.72312e-96 2.51284e-96 2.23837e-96 1.95234e-96 1.68799e-96 1.4528e-96 1.23801e-96 1.03253e-96 8.31825e-97 6.39441e-97 4.64009e-97 3.14905e-97 1.98397e-97 1.1544e-97 6.18632e-98 3.05115e-98 1.38626e-98 5.81377e-99 2.2567e-99 8.13254e-100 2.72966e-100 8.56076e-101 2.51648e-101 6.95421e-102 1.81175e-102 4.46162e-103 1.04113e-103 2.30748e-104 4.86768e-105 9.79321e-106 1.88259e-106 3.46391e-107 6.11026e-108 1.03489e-108 1.6853e-109 2.64233e-110 3.99358e-111 5.82517e-112 8.20919e-113 1.11889e-113 1.47634e-114 1.88757e-115 2.34052e-116 2.81688e-117 3.29315e-118 3.7425e-119 4.13738e-120 4.45238e-121 4.667e-122 4.76788e-123 4.75015e-124 4.61767e-125 4.38229e-126 4.0622e-127 3.67972e-128 3.25884e-129 2.82292e-130 2.3928e-131 1.98549e-132 1.61343e-133 1.28446e-134 1.00216e-135 7.66556e-137 5.72013e-138 0 
0 1.12855e-193 2.8828e-192 7.27116e-191 1.81336e-189 4.47111e-188 1.0898e-186 2.62565e-185 6.25221e-184 1.47126e-182 3.42102e-181 7.8592e-180 1.78364e-178 3.99844e-177 8.85259e-176 1.9355e-174 4.17831e-173 8.90501e-172 1.87342e-170 3.88993e-169 7.97059e-168 1.61145e-166 3.21409e-165 6.32327e-164 1.22688e-162 2.34729e-161 4.42753e-160 8.23216e-159 1.5085e-157 2.72381e-156 4.84539e-155 8.49017e-154 1.46505e-152 2.48916e-151 4.16316e-150 6.85285e-149 1.10994e-147 1.76853e-146 2.77142e-145 4.27039e-144 6.46843e-143 9.62904e-142 1.40833e-140 2.02322e-139 2.85414e-138 3.95251e-137 5.37161e-136 7.16195e-135 9.36508e-134 1.2006e-132 1.50848e-131 1.85683e-130 2.2384e-129 2.64156e-128 3.05045e-127 3.44559e-126 3.80508e-125 4.10643e-124 4.32869e-123 4.45471e-122 4.47326e-121 4.38058e-120 4.18109e-119 3.88719e-118 3.51799e-117 3.09724e-116 2.65078e-115 2.20378e-114 1.77837e-113 1.3918e-112 1.0555e-111 7.74937e-111 5.50275e-110 3.77528e-109 2.49978e-108 1.59562e-107 9.80606e-107 5.79458e-106 3.28775e-105 1.7884e-104 9.31148e-104 4.63237e-103 2.19789e-102 9.9255e-102 4.25699e-101 1.72999e-100 6.64478e-100 2.4057e-99 8.18588e-99 2.60977e-98 7.77001e-98 2.15285e-97 5.53127e-97 1.31306e-96 2.86993e-96 5.75739e-96 1.05748e-95 1.77591e-95 2.72737e-95 3.83841e-95 4.97032e-95 5.95414e-95 6.63891e-95 6.93251e-95 6.82597e-95 6.39827e-95 5.79488e-95 5.18026e-95 4.68469e-95 4.3739e-95 4.25201e-95 4.28476e-95 4.42618e-95 4.64035e-95 4.91306e-95 5.24579e-95 5.63143e-95 6.02911e-95 6.36401e-95 6.56028e-95 6.58717e-95 6.48411e-95 6.34199e-95 6.24904e-95 6.23989e-95 6.28721e-95 6.33882e-95 6.36247e-95 6.35952e-95 6.34782e-95 6.34548e-95 6.37469e-95 6.47053e-95 6.67135e-95 6.9912e-95 7.39549e-95 7.79887e-95 8.09002e-95 8.17522e-95 8.02133e-95 7.67325e-95 7.23004e-95 6.79087e-95 6.40817e-95 6.08233e-95 5.79485e-95 5.5437e-95 5.34988e-95 5.23737e-95 5.21049e-95 5.24883e-95 5.32265e-95 5.41396e-95 5.51895e-95 5.62315e-95 5.67439e-95 5.59063e-95 5.30767e-95 4.83009e-95 4.24178e-95 3.66835e-95 3.22338e-95 2.97556e-95 2.94661e-95 3.12598e-95 3.48452e-95 3.97971e-95 4.55287e-95 5.12558e-95 5.60749e-95 5.92278e-95 6.04053e-95 5.98224e-95 5.79857e-95 5.5388e-95 5.24e-95 4.93621e-95 4.66687e-95 4.47171e-95 4.37853e-95 4.39517e-95 4.50846e-95 4.68752e-95 4.89315e-95 5.09662e-95 5.29938e-95 5.53289e-95 5.82415e-95 6.14536e-95 6.39552e-95 6.44538e-95 6.21798e-95 5.73813e-95 5.11181e-95 4.45891e-95 3.85533e-95 3.31818e-95 2.82757e-95 2.35827e-95 1.89991e-95 1.46059e-95 1.05998e-95 7.19476e-96 4.53384e-96 2.63884e-96 1.41464e-96 6.98017e-97 3.17295e-97 1.33142e-97 5.17122e-98 1.86477e-98 6.26328e-99 1.96569e-99 5.78253e-100 1.5992e-100 4.16959e-101 1.02763e-101 2.39997e-102 5.32352e-103 1.12396e-103 2.26321e-104 4.35444e-105 8.01906e-106 1.4158e-106 2.40005e-107 3.91198e-108 6.13905e-109 9.28695e-110 1.35587e-110 1.91255e-111 2.60917e-112 3.44595e-113 4.40995e-114 5.47333e-115 6.59356e-116 7.71573e-117 8.77694e-118 9.71233e-119 1.04618e-119 1.09768e-120 1.12249e-121 1.1194e-122 1.08925e-123 1.03474e-124 9.60102e-126 8.7056e-127 7.71748e-128 6.69177e-129 5.67781e-130 4.71599e-131 3.83609e-132 3.05699e-133 2.38752e-134 1.82805e-135 1.36547e-136 0 
0 2.79137e-192 7.12273e-191 1.7946e-189 4.47077e-188 1.10115e-186 2.6811e-185 6.45264e-184 1.53486e-182 3.60797e-181 8.3804e-180 1.92321e-178 4.36008e-177 9.76372e-176 2.15941e-174 4.71626e-173 1.01706e-171 2.16532e-170 4.55058e-169 9.43878e-168 1.93201e-166 3.90194e-165 7.77439e-164 1.52791e-162 2.96145e-161 5.65999e-160 1.0665e-158 1.98089e-157 3.62612e-156 6.54072e-155 1.16233e-153 2.03455e-152 3.50719e-151 5.95267e-150 9.94574e-149 1.63546e-147 2.64622e-146 4.21206e-145 6.59391e-144 1.015e-142 1.53588e-141 2.28403e-140 3.33722e-139 4.78945e-138 6.74965e-137 9.33778e-136 1.26777e-134 1.68862e-133 2.20587e-132 2.82511e-131 3.54604e-130 4.36062e-129 5.25151e-128 6.19127e-127 7.14261e-126 8.0599e-125 8.89213e-124 9.58703e-123 1.00961e-121 1.038e-120 1.04131e-119 1.01876e-118 9.71431e-118 9.02284e-117 8.15808e-116 7.17557e-115 6.13542e-114 5.09601e-113 4.10844e-112 3.21238e-111 2.43391e-110 1.7853e-109 1.26656e-108 8.68157e-108 5.74322e-107 3.66262e-106 2.24889e-105 1.32773e-104 7.52666e-104 4.09063e-103 2.12798e-102 1.05774e-101 5.01437e-101 2.26256e-100 9.69605e-100 3.93718e-99 1.51105e-98 5.46646e-98 1.85868e-97 5.92143e-97 1.76174e-96 4.87807e-96 1.25253e-95 2.97161e-95 6.4916e-95 1.30168e-94 2.38989e-94 4.01222e-94 6.1603e-94 8.66831e-94 1.12234e-93 1.34442e-93 1.49902e-93 1.56533e-93 1.54133e-93 1.44483e-93 1.30866e-93 1.16994e-93 1.05808e-93 9.8793e-94 9.60424e-94 9.67823e-94 9.99743e-94 1.04808e-93 1.10961e-93 1.18469e-93 1.2717e-93 1.36144e-93 1.43703e-93 1.48138e-93 1.48757e-93 1.46446e-93 1.43253e-93 1.41164e-93 1.40959e-93 1.42025e-93 1.43188e-93 1.43722e-93 1.43657e-93 1.43394e-93 1.43342e-93 1.44003e-93 1.46169e-93 1.50704e-93 1.57923e-93 1.67045e-93 1.76145e-93 1.82713e-93 1.84636e-93 1.81167e-93 1.73317e-93 1.63319e-93 1.53407e-93 1.44763e-93 1.374e-93 1.30904e-93 1.25231e-93 1.20855e-93 1.18314e-93 1.17706e-93 1.1857e-93 1.20236e-93 1.22297e-93 1.24664e-93 1.27007e-93 1.28148e-93 1.2624e-93 1.19839e-93 1.0905e-93 9.57662e-94 8.282e-94 7.27743e-94 6.7179e-94 6.65258e-94 7.05765e-94 7.86732e-94 8.98552e-94 1.02798e-93 1.1573e-93 1.26614e-93 1.33738e-93 1.36404e-93 1.35095e-93 1.30952e-93 1.25088e-93 1.18341e-93 1.1148e-93 1.05397e-93 1.00988e-93 9.88814e-94 9.9254e-94 1.01809e-93 1.0585e-93 1.10494e-93 1.15093e-93 1.19678e-93 1.24958e-93 1.31535e-93 1.38781e-93 1.44418e-93 1.45536e-93 1.40402e-93 1.29574e-93 1.1544e-93 1.00704e-93 8.70755e-94 7.49443e-94 6.38632e-94 5.32639e-94 4.29126e-94 3.29916e-94 2.39451e-94 1.62556e-94 1.02458e-94 5.96509e-95 3.19895e-95 1.57911e-95 7.18164e-96 3.01518e-96 1.17179e-96 4.22825e-97 1.42112e-97 4.46326e-98 1.31394e-98 3.63655e-99 9.48896e-100 2.3405e-100 5.47054e-101 1.21446e-101 2.56626e-102 5.17185e-103 9.95929e-104 1.83569e-104 3.24384e-105 5.50385e-106 8.97907e-107 1.41036e-107 2.13549e-108 3.12061e-109 4.40589e-110 6.01626e-111 7.95315e-112 1.01876e-112 1.2656e-113 1.52608e-114 1.7875e-115 2.03529e-116 2.25436e-117 2.43067e-118 2.55276e-119 2.613e-120 2.60834e-121 2.54055e-122 2.41577e-123 2.24372e-124 2.03646e-125 1.80709e-126 1.56847e-127 1.33213e-128 1.10756e-129 9.01815e-131 7.19376e-132 5.62397e-133 4.31042e-134 3.22289e-135 0 
0 6.82522e-191 1.73972e-189 4.37858e-188 1.08964e-186 2.68089e-185 6.52052e-184 1.56762e-182 3.72487e-181 8.74662e-180 2.02946e-178 4.65243e-177 1.05363e-175 2.35694e-174 5.20725e-173 1.13609e-171 2.44739e-170 5.20502e-169 1.09272e-167 2.26414e-166 4.62957e-165 9.34024e-164 1.85904e-162 3.64978e-161 7.06678e-160 1.34922e-158 2.53966e-157 4.71223e-156 8.61705e-155 1.55272e-153 2.75644e-152 4.81993e-151 8.30013e-150 1.40732e-148 2.34895e-147 3.85863e-146 6.23699e-145 9.91748e-144 1.55099e-142 2.38502e-141 3.60532e-140 5.35611e-139 7.81798e-138 1.12088e-136 1.57804e-135 2.18095e-134 2.95806e-133 3.93611e-132 5.13668e-131 6.57213e-130 8.24109e-129 1.01242e-127 1.21806e-126 1.43462e-125 1.65344e-124 1.86396e-123 2.05442e-122 2.21281e-121 2.32806e-120 2.3912e-119 2.39653e-118 2.34237e-117 2.23142e-116 2.07061e-115 1.87038e-114 1.64357e-113 1.40399e-112 1.16505e-111 9.38391e-111 7.33044e-110 5.54888e-109 4.06642e-108 2.88222e-107 1.97381e-106 1.30458e-105 8.31217e-105 5.09921e-104 3.00787e-103 1.70361e-102 9.25082e-102 4.80821e-101 2.38796e-100 1.13109e-99 5.09942e-99 2.18353e-98 8.85933e-98 3.39746e-97 1.22814e-96 4.17274e-96 1.32841e-95 3.94953e-95 1.09286e-94 2.80435e-94 6.64949e-94 1.45184e-93 2.90984e-93 5.34038e-93 8.96272e-93 1.37579e-92 1.93558e-92 2.50586e-92 3.00156e-92 3.34667e-92 3.49476e-92 3.44129e-92 3.22601e-92 2.92217e-92 2.6126e-92 2.36295e-92 2.20639e-92 2.14502e-92 2.16155e-92 2.23279e-92 2.34064e-92 2.47793e-92 2.64544e-92 2.83956e-92 3.03976e-92 3.20846e-92 3.30757e-92 3.32164e-92 3.27042e-92 3.19948e-92 3.15304e-92 3.1485e-92 3.17224e-92 3.19817e-92 3.2101e-92 3.20868e-92 3.20283e-92 3.2017e-92 3.2165e-92 3.2649e-92 3.36615e-92 3.52725e-92 3.73075e-92 3.93373e-92 4.08022e-92 4.12313e-92 4.04581e-92 3.8708e-92 3.64779e-92 3.42656e-92 3.23352e-92 3.06901e-92 2.92388e-92 2.79719e-92 2.69948e-92 2.64276e-92 2.62916e-92 2.64842e-92 2.68559e-92 2.73159e-92 2.78435e-92 2.83643e-92 2.86156e-92 2.81858e-92 2.67539e-92 2.4344e-92 2.13783e-92 1.84883e-92 1.62458e-92 1.49967e-92 1.48509e-92 1.57554e-92 1.75633e-92 2.006e-92 2.29498e-92 2.58373e-92 2.82677e-92 2.98594e-92 3.04563e-92 3.01656e-92 2.92417e-92 2.79328e-92 2.64262e-92 2.48943e-92 2.35359e-92 2.25511e-92 2.20801e-92 2.21626e-92 2.27325e-92 2.36342e-92 2.46711e-92 2.56986e-92 2.6724e-92 2.79042e-92 2.93729e-92 3.0989e-92 3.2245e-92 3.24929e-92 3.13466e-92 2.89308e-92 2.57774e-92 2.24885e-92 1.9446e-92 1.6737e-92 1.42623e-92 1.18953e-92 9.58383e-93 7.36859e-93 5.3486e-93 3.63155e-93 2.28943e-93 1.33328e-93 7.15267e-94 3.5323e-94 1.60724e-94 6.75162e-95 2.62544e-95 9.47957e-96 3.18824e-96 1.00202e-96 2.95201e-97 8.17639e-98 2.13515e-98 5.27063e-99 1.23293e-99 2.73936e-100 5.79335e-101 1.16854e-101 2.25217e-102 4.15479e-103 7.34838e-104 1.24791e-104 2.03768e-105 3.20351e-106 4.85498e-107 7.10114e-108 1.00351e-108 1.37156e-109 1.81481e-110 2.32686e-111 2.89337e-112 3.49215e-113 4.09425e-114 4.66625e-115 5.17343e-116 5.58338e-117 5.86948e-118 6.01379e-119 6.0089e-120 5.8584e-121 5.5761e-122 5.18404e-123 4.70979e-124 4.18344e-125 3.6346e-126 3.08998e-127 2.57164e-128 2.09599e-129 1.67364e-130 1.30973e-131 1.00483e-132 7.52055e-134 0 
0 1.64956e-189 4.20015e-188 1.05597e-186 2.62504e-185 6.45162e-184 1.5675e-182 3.76446e-181 8.9353e-180 2.09593e-178 4.85797e-177 1.11248e-175 2.51675e-174 5.62396e-173 1.24121e-171 2.70514e-170 5.82134e-169 1.23676e-167 2.59368e-166 5.36852e-165 1.09657e-163 2.21005e-162 4.3942e-161 8.61797e-160 1.66689e-158 3.1792e-157 5.97806e-156 1.10806e-154 2.02416e-153 3.64361e-152 6.46161e-151 1.12872e-149 1.94172e-148 3.28889e-147 5.48385e-146 8.99916e-145 1.45312e-143 2.30827e-142 3.60623e-141 5.53985e-140 8.36585e-139 1.24159e-137 1.81045e-136 2.59307e-135 3.64702e-134 5.03537e-133 6.82276e-132 9.06959e-131 1.18242e-129 1.51135e-128 1.89328e-127 2.3236e-126 2.79282e-125 3.28613e-124 3.78365e-123 4.26124e-122 4.69209e-121 5.04894e-120 5.30675e-119 5.44544e-118 5.45233e-117 5.324e-116 5.06698e-115 4.69735e-114 4.2391e-113 3.72152e-112 3.17607e-111 2.63306e-110 2.11883e-109 1.65364e-108 1.25059e-107 9.15634e-107 6.48397e-106 4.43633e-105 2.92952e-104 1.86488e-103 1.14302e-102 6.73638e-102 3.81204e-101 2.06819e-100 1.07404e-99 5.32959e-99 2.52232e-98 1.13623e-97 4.86128e-97 1.97081e-96 7.55195e-96 2.72785e-95 9.2613e-95 2.94625e-94 8.75356e-94 2.42057e-93 6.20752e-93 1.47104e-92 3.21018e-92 6.43101e-92 1.17981e-91 1.97943e-91 3.03772e-91 4.27304e-91 5.53144e-91 6.62534e-91 7.38701e-91 7.71397e-91 7.5962e-91 7.1214e-91 6.45113e-91 5.76813e-91 5.21729e-91 4.87185e-91 4.73648e-91 4.773e-91 4.93019e-91 5.16809e-91 5.47094e-91 5.8404e-91 6.26856e-91 6.71016e-91 7.08237e-91 7.30131e-91 7.33294e-91 7.2207e-91 7.06489e-91 6.96286e-91 6.95293e-91 7.00522e-91 7.06236e-91 7.08872e-91 7.08566e-91 7.07282e-91 7.07036e-91 7.10312e-91 7.21005e-91 7.43353e-91 7.78894e-91 8.23778e-91 8.68539e-91 9.00841e-91 9.10307e-91 8.9327e-91 8.5469e-91 8.05512e-91 7.56701e-91 7.1408e-91 6.77739e-91 6.45682e-91 6.17709e-91 5.96144e-91 5.83625e-91 5.80617e-91 5.8486e-91 5.93061e-91 6.0321e-91 6.14837e-91 6.26283e-91 6.31752e-91 6.22181e-91 5.90513e-91 5.37293e-91 4.71829e-91 4.08048e-91 3.58555e-91 3.30987e-91 3.27771e-91 3.47739e-91 3.87648e-91 4.42762e-91 5.06552e-91 5.70292e-91 6.2395e-91 6.59109e-91 6.72321e-91 6.65942e-91 6.45573e-91 6.16688e-91 5.83433e-91 5.49613e-91 5.19621e-91 4.97875e-91 4.87465e-91 4.89271e-91 5.01834e-91 5.21727e-91 5.44614e-91 5.67315e-91 5.89984e-91 6.16065e-91 6.48488e-91 6.84124e-91 7.11794e-91 7.17225e-91 6.91925e-91 6.38639e-91 5.69078e-91 4.9651e-91 4.29359e-91 3.69552e-91 3.14911e-91 2.62649e-91 2.11618e-91 1.62714e-91 1.1812e-91 8.02122e-92 5.05789e-92 2.94636e-92 1.58119e-92 7.81192e-93 3.55625e-93 1.4947e-93 5.81573e-94 2.10119e-94 7.0716e-95 2.22407e-95 6.557e-96 1.8175e-96 4.74981e-97 1.17342e-97 2.74713e-98 6.1087e-99 1.29298e-99 2.6102e-100 5.03503e-101 9.29666e-102 1.6457e-102 2.79721e-103 4.57158e-104 7.19359e-105 1.09119e-105 1.59748e-106 2.25958e-107 3.09117e-108 4.09394e-109 5.25393e-110 6.53922e-111 7.89993e-112 9.27074e-113 1.0576e-113 1.17367e-114 1.26788e-115 1.33413e-116 1.36825e-117 1.36846e-118 1.33548e-119 1.27236e-120 1.18405e-121 1.07679e-122 9.57389e-124 8.32604e-125 7.08543e-126 5.90269e-127 4.81571e-128 3.84913e-129 3.0152e-130 2.31559e-131 1.7348e-132 0 
0 3.94026e-188 1.00221e-186 2.51698e-185 6.25024e-184 1.5345e-182 3.72426e-181 8.93456e-180 2.11844e-178 4.9639e-177 1.14932e-175 2.62917e-174 5.94164e-173 1.32632e-171 2.9241e-170 6.36622e-169 1.36854e-167 2.90445e-166 6.08471e-165 1.25812e-163 2.56716e-162 5.16849e-161 1.02657e-159 2.01124e-158 3.88611e-157 7.40413e-156 1.39081e-154 2.57526e-153 4.69956e-152 8.45077e-151 1.49713e-149 2.61252e-148 4.48966e-147 7.59683e-146 1.26539e-144 2.07444e-143 3.34625e-142 5.3101e-141 8.28763e-140 1.27185e-138 1.91871e-137 2.84473e-136 4.14393e-135 5.92932e-134 8.33096e-133 1.14909e-131 1.55543e-130 2.0656e-129 2.6903e-128 3.4353e-127 4.29918e-126 5.27115e-125 6.32936e-124 7.44007e-123 8.55814e-122 9.629e-121 1.05923e-119 1.13869e-118 1.19567e-117 1.22574e-116 1.22612e-115 1.19611e-114 1.13729e-113 1.05332e-112 9.49667e-112 8.32932e-111 7.10185e-110 5.88217e-109 4.729e-108 3.68731e-107 2.78602e-106 2.03795e-105 1.44184e-104 9.85615e-104 6.50262e-103 4.13577e-102 2.53263e-101 1.49129e-100 8.4317e-100 4.57059e-99 2.37154e-98 1.17581e-97 5.56007e-97 2.50258e-96 1.06985e-95 4.33382e-95 1.65938e-94 5.98932e-94 2.03193e-93 6.45945e-93 1.91784e-92 5.29984e-92 1.3583e-91 3.21703e-91 7.01675e-91 1.40503e-90 2.57662e-90 4.32158e-90 6.6305e-90 9.32532e-90 1.20704e-89 1.44568e-89 1.61186e-89 1.68323e-89 1.65759e-89 1.55407e-89 1.4079e-89 1.25893e-89 1.13879e-89 1.06344e-89 1.03392e-89 1.0419e-89 1.07619e-89 1.12807e-89 1.1941e-89 1.27466e-89 1.36801e-89 1.4643e-89 1.54549e-89 1.5933e-89 1.60033e-89 1.57602e-89 1.54219e-89 1.52003e-89 1.51788e-89 1.52927e-89 1.54172e-89 1.54747e-89 1.54683e-89 1.54404e-89 1.54351e-89 1.55068e-89 1.57403e-89 1.62279e-89 1.7003e-89 1.79816e-89 1.89574e-89 1.96615e-89 1.98679e-89 1.94968e-89 1.86561e-89 1.75841e-89 1.65194e-89 1.55892e-89 1.47956e-89 1.40956e-89 1.34851e-89 1.30146e-89 1.27414e-89 1.26757e-89 1.27681e-89 1.29469e-89 1.31683e-89 1.34216e-89 1.36703e-89 1.37879e-89 1.35772e-89 1.28848e-89 1.17229e-89 1.02944e-89 8.90288e-90 7.82306e-90 7.22157e-90 7.15144e-90 7.5872e-90 8.45812e-90 9.66084e-90 1.10528e-89 1.24438e-89 1.36149e-89 1.43826e-89 1.46717e-89 1.45334e-89 1.40894e-89 1.34593e-89 1.27337e-89 1.19956e-89 1.1341e-89 1.08663e-89 1.06389e-89 1.06779e-89 1.09517e-89 1.13855e-89 1.18849e-89 1.23807e-89 1.28761e-89 1.34459e-89 1.41534e-89 1.49302e-89 1.55328e-89 1.56504e-89 1.50984e-89 1.39365e-89 1.24197e-89 1.08369e-89 9.37174e-90 8.06648e-90 6.87382e-90 5.73312e-90 4.61936e-90 3.55205e-90 2.57882e-90 1.75147e-90 1.10465e-90 6.43667e-91 3.45551e-91 1.70792e-91 7.77874e-92 3.27118e-92 1.27353e-92 4.60407e-93 1.55054e-93 4.87997e-94 1.43975e-94 3.99376e-95 1.04452e-95 2.58248e-96 6.05078e-97 1.34659e-97 2.85259e-98 5.76353e-99 1.11272e-99 2.0563e-100 3.64325e-101 6.19794e-102 1.01385e-102 1.59677e-103 2.42431e-104 3.55237e-105 5.0293e-106 6.88654e-107 9.12897e-108 1.17265e-108 1.46088e-109 1.76652e-110 2.07501e-111 2.36939e-112 2.63193e-113 2.84592e-114 2.99749e-115 3.0771e-116 3.08054e-117 3.00921e-118 2.86977e-119 2.6732e-120 2.43341e-121 2.1657e-122 1.88527e-123 1.60594e-124 1.33919e-125 1.09366e-126 8.75014e-128 6.8612e-129 5.27446e-130 3.95543e-131 0 
0 9.30117e-187 2.36323e-185 5.92875e-184 1.47067e-182 3.6068e-181 8.74446e-180 2.09558e-178 4.96348e-177 1.1618e-175 2.68713e-174 6.14055e-173 1.38623e-171 3.09116e-170 6.8078e-169 1.4806e-167 3.1795e-166 6.74078e-165 1.41069e-163 2.91381e-162 5.93933e-161 1.19453e-159 2.37012e-158 4.63866e-157 8.95353e-156 1.70414e-154 3.19778e-153 5.91499e-152 1.07831e-150 1.93703e-149 3.42809e-148 5.97597e-147 1.02593e-145 1.73418e-144 2.88566e-143 4.72583e-142 7.61547e-141 1.20726e-139 1.8823e-138 2.88573e-137 4.34904e-136 6.44151e-135 9.37398e-134 1.33993e-132 1.88078e-131 2.59159e-130 3.50453e-129 4.64939e-128 6.0495e-127 7.71711e-126 9.64825e-125 1.1818e-123 1.41766e-122 1.66481e-121 1.91313e-120 2.15042e-119 2.36326e-118 2.53808e-117 2.66254e-116 2.72688e-115 2.72511e-114 2.65589e-113 2.52287e-112 2.3344e-111 2.10269e-110 1.84249e-109 1.5695e-108 1.29874e-107 1.04316e-106 8.12628e-106 6.13433e-105 4.48312e-104 3.1689e-103 2.16425e-102 1.42659e-101 9.06524e-101 5.5464e-100 3.26303e-99 1.8433e-98 9.9834e-98 5.17568e-97 2.56394e-96 1.21141e-95 5.44805e-95 2.32715e-94 9.41954e-94 3.60386e-93 1.29978e-92 4.40639e-92 1.39979e-91 4.1532e-91 1.14697e-90 2.93778e-90 6.95397e-90 1.51597e-89 3.0342e-89 5.56212e-89 9.32602e-89 1.43053e-88 2.01162e-88 2.60353e-88 3.11811e-88 3.4765e-88 3.63047e-88 3.5753e-88 3.35221e-88 3.03713e-88 2.716e-88 2.45696e-88 2.29453e-88 2.23092e-88 2.24814e-88 2.32207e-88 2.43389e-88 2.57622e-88 2.74983e-88 2.95102e-88 3.15855e-88 3.33358e-88 3.43679e-88 3.45221e-88 3.40016e-88 3.32756e-88 3.27999e-88 3.27541e-88 3.29993e-88 3.32674e-88 3.33917e-88 3.33781e-88 3.33183e-88 3.33073e-88 3.34622e-88 3.39662e-88 3.50179e-88 3.66887e-88 3.87976e-88 4.09e-88 4.2417e-88 4.2862e-88 4.2063e-88 4.02521e-88 3.79422e-88 3.5647e-88 3.36401e-88 3.19272e-88 3.04165e-88 2.90993e-88 2.80846e-88 2.74954e-88 2.73535e-88 2.75525e-88 2.7938e-88 2.84153e-88 2.89607e-88 2.94947e-88 2.97446e-88 2.92862e-88 2.77898e-88 2.52824e-88 2.22014e-88 1.92003e-88 1.68716e-88 1.55744e-88 1.54232e-88 1.63632e-88 1.82418e-88 2.08361e-88 2.38386e-88 2.68388e-88 2.93653e-88 3.10224e-88 3.16478e-88 3.13512e-88 3.03949e-88 2.90363e-88 2.74711e-88 2.58791e-88 2.4467e-88 2.34427e-88 2.29515e-88 2.30349e-88 2.36246e-88 2.45598e-88 2.56369e-88 2.6707e-88 2.77771e-88 2.90075e-88 3.05336e-88 3.22073e-88 3.35043e-88 3.37563e-88 3.25658e-88 3.00616e-88 2.67922e-88 2.33798e-88 2.022e-88 1.74043e-88 1.48311e-88 1.23701e-88 9.96728e-89 7.66481e-89 5.56527e-89 3.78034e-89 2.38475e-89 1.38996e-89 7.46452e-90 3.69094e-90 1.68185e-90 7.0764e-91 2.75658e-91 9.97181e-92 3.36049e-92 1.05837e-92 3.12478e-93 8.67434e-94 2.27041e-94 5.61778e-95 1.3173e-95 2.93402e-96 6.22053e-97 1.25788e-97 2.43057e-98 4.49554e-99 7.97189e-100 1.35738e-100 2.22234e-101 3.50321e-102 5.32358e-103 7.80777e-104 1.1064e-104 1.51636e-105 2.01198e-106 2.58686e-107 3.2257e-108 3.90423e-109 4.59033e-110 5.24651e-111 5.83337e-112 6.31366e-113 6.65627e-114 6.83961e-115 6.85384e-116 6.7016e-117 6.39726e-118 5.96485e-119 5.43508e-120 4.84187e-121 4.21905e-122 3.59746e-123 3.00287e-124 2.45474e-125 1.96593e-126 1.54307e-127 1.18739e-128 8.91331e-130 0 