# vtk DataFile Version 3.0
Gray-Scott Simulation Output
ASCII
DATASET STRUCTURED_POINTS
DIMENSIONS 256 256 1
SPACING 1.0 1.0 1.0
ORIGIN 0 0 0
POINT_DATA 65536
SCALARS u double
LOOKUP_TABLE default
0 0 0 0 0 0 0 0 0 0 0 0 0 0 0 0 0 0 0 0 0 0 0 0 0 0 0 0 0 0 0 0 0 0 0 0 0 0 0 0 0 0 0 0 0 0 0 0 0 0 0 0 0 0 0 0 0 0 0 0 0 0 0 0 0 0 0 0 0 0 0 0 0 0 0 0 0 0 0 0 0 0 0 0 0 0 0 0 0 0 0 0 0 0 0 0 0 0 0 0 0 0 0 0 0 0 0 0 0 0 0 0 0 0 0 0 0 0 0 0 0 0 0 0 0 0 0 0 0 0 0 0 0 0 0 0 0 0 0 0 0 0 0 0 0 0 0 0 0 0 0 0 0 0 0 0 0 0 0 0 0 0 0 0 0 0 0 0 0 0 0 0 0 0 0 0 0 0 0 0 0 0 0 0 0 0 0 0 0 0 0 0 0 0 0 0 0 0 0 0 0 0 0 0 0 0 0 0 0 0 0 0 0 0 0 0 0 0 0 0 0 0 0 0 0 0 0 0 0 0 0 0 0 0 0 0 0 0 0 0 0 0 0 0 0 0 0 0 0 0 0 0 0 0 0 0 
0 8.64122e-120 6.89603e-119 5.36517e-118 4.13098e-117 3.14825e-116 2.37462e-115 1.77248e-114 1.30916e-113 9.56716e-113 6.9168e-112 4.9467e-111 3.49919e-110 2.44801e-109 1.69358e-108 1.15849e-107 7.83477e-107 5.23786e-106 3.46118e-105 2.26039e-104 1.45874e-103 9.30141e-103 5.85925e-102 3.64585e-101 2.24057e-100 1.35976e-99 8.14793e-99 4.82002e-98 2.81452e-97 1.62198e-96 9.22371e-96 5.17505e-95 2.86419e-94 1.56349e-93 8.41624e-93 4.4668e-92 2.33697e-91 1.20505e-90 6.12311e-90 3.06529e-89 1.51153e-88 7.34036e-88 3.50983e-87 1.65207e-86 7.65336e-86 3.48865e-85 1.56439e-84 6.89942e-84 2.99195e-83 1.27545e-82 5.34354e-82 2.19957e-81 8.89347e-81 3.53111e-80 1.37637e-79 5.26521e-79 1.97617e-78 7.27488e-78 2.62595e-77 9.29102e-77 3.22118e-76 1.09394e-75 3.63786e-75 1.18418e-74 3.77183e-74 1.17512e-73 3.57968e-73 1.06578e-72 3.10008e-72 8.80616e-72 2.44189e-71 6.607e-71 1.74355e-70 4.48563e-70 1.12455e-69 2.74601e-69 6.52825e-69 1.5103e-68 3.39861e-68 7.43555e-68 1.58088e-67 3.26488e-67 6.54673e-67 1.27405e-66 2.4053e-66 4.40361e-66 7.81526e-66 1.34408e-65 2.23938e-65 3.61356e-65 5.64621e-65 8.54135e-65 1.25085e-64 1.77333e-64 2.43393e-64 3.23473e-64 4.16396e-64 5.194e-64 6.2818e-64 7.37235e-64 8.40481e-64 9.32067e-64 1.00722e-63 1.06299e-63 1.09862e-63 1.11566e-63 1.11758e-63 1.10917e-63 1.09573e-63 1.08229e-63 1.07297e-63 1.07061e-63 1.07657e-63 1.09087e-63 1.11237e-63 1.13914e-63 1.16884e-63 1.1991e-63 1.22783e-63 1.25347e-63 1.27515e-63 1.29263e-63 1.30629e-63 1.3169e-63 1.32545e-63 1.333e-63 1.34057e-63 1.34906e-63 1.35922e-63 1.37164e-63 1.38663e-63 1.40415e-63 1.42367e-63 1.44408e-63 1.46377e-63 1.48069e-63 1.49267e-63 1.4977e-63 1.49435e-63 1.48198e-63 1.46091e-63 1.43236e-63 1.3983e-63 1.36113e-63 1.32335e-63 1.28725e-63 1.25461e-63 1.22655e-63 1.20341e-63 1.18472e-63 1.16931e-63 1.15543e-63 1.14102e-63 1.12396e-63 1.1025e-63 1.07555e-63 1.04303e-63 1.006e-63 9.66675e-64 9.28171e-64 8.94108e-64 8.68058e-64 8.52971e-64 8.50676e-64 8.61551e-64 8.84432e-64 9.16756e-64 9.54925e-64 9.94822e-64 1.03238e-63 1.06412e-63 1.08758e-63 1.10154e-63 1.10612e-63 1.10259e-63 1.09311e-63 1.08038e-63 1.06722e-63 1.0562e-63 1.04939e-63 1.04814e-63 1.05297e-63 1.06357e-63 1.07885e-63 1.097e-63 1.11564e-63 1.13198e-63 1.14304e-63 1.14591e-63 1.13808e-63 1.1177e-63 1.08385e-63 1.0366e-63 9.77011e-64 9.06941e-64 8.28812e-64 7.45326e-64 6.59219e-64 5.73084e-64 4.8926e-64 4.09765e-64 3.36264e-64 2.70025e-64 2.11898e-64 1.62285e-64 1.21153e-64 8.80681e-65 6.22766e-65 4.28068e-65 2.85833e-65 1.85318e-65 1.16622e-65 7.12219e-66 4.22056e-66 2.42687e-66 1.35418e-66 7.33373e-67 3.85547e-67 1.9681e-67 9.75796e-68 4.70064e-68 2.20087e-68 1.00192e-68 4.43655e-69 1.91163e-69 8.01844e-70 3.27553e-70 1.30366e-70 5.0573e-71 1.91306e-71 7.05949e-72 2.54234e-72 8.93896e-73 3.06978e-73 1.03007e-73 3.37859e-74 1.08362e-74 3.39984e-75 1.04384e-75 3.13734e-76 9.23405e-77 2.66242e-77 7.52241e-78 2.08342e-78 5.65816e-79 1.50725e-79 3.93947e-80 1.01056e-80 2.54499e-81 6.29399e-82 1.52899e-82 3.64948e-83 8.56011e-84 1.96952e-84 4.25765e-85 0 
0 6.89283e-119 5.49945e-118 4.27759e-117 3.29279e-116 2.50887e-115 1.8919e-114 1.41184e-113 1.04255e-112 7.61699e-112 5.50562e-111 3.93656e-110 2.78401e-109 1.94724e-108 1.34683e-107 9.21096e-107 6.22793e-106 4.16272e-105 2.75014e-104 1.79565e-103 1.15857e-102 7.38592e-102 4.65167e-101 2.89385e-100 1.77807e-99 1.07886e-98 6.46348e-98 3.82283e-97 2.23181e-96 1.28593e-95 7.31132e-95 4.10134e-94 2.26952e-93 1.23866e-92 6.66652e-92 3.53756e-91 1.85049e-90 9.54043e-90 4.84692e-89 2.42603e-88 1.19612e-87 5.80779e-87 2.77662e-86 1.30677e-85 6.05286e-85 2.75872e-84 1.23691e-83 5.45445e-83 2.36505e-82 1.00809e-81 4.22293e-81 1.7381e-80 7.02688e-80 2.78971e-79 1.08728e-78 4.15893e-78 1.56082e-77 5.74539e-77 2.0737e-76 7.33656e-76 2.5434e-75 8.63707e-75 2.87207e-74 9.34856e-74 2.97754e-73 9.27621e-73 2.82563e-72 8.41247e-72 2.44691e-71 6.95061e-71 1.92732e-70 5.21467e-70 1.37611e-69 3.5403e-69 8.87555e-69 2.16731e-68 5.1525e-68 1.19203e-67 2.68246e-67 5.86883e-67 1.24781e-66 2.57705e-66 5.16761e-66 1.00568e-65 1.89869e-65 3.4762e-65 6.16948e-65 1.06106e-64 1.76788e-64 2.85278e-64 4.45757e-64 6.74333e-64 9.87552e-64 1.40007e-63 1.92164e-63 2.55392e-63 3.28761e-63 4.1009e-63 4.95984e-63 5.82097e-63 6.6363e-63 7.35964e-63 7.95337e-63 8.39406e-63 8.67589e-63 8.81099e-63 8.82679e-63 8.76101e-63 8.65541e-63 8.54967e-63 8.47635e-63 8.45776e-63 8.50477e-63 8.6174e-63 8.78672e-63 8.99756e-63 9.23149e-63 9.46983e-63 9.69615e-63 9.89821e-63 1.0069e-62 1.02068e-62 1.03146e-62 1.03983e-62 1.04658e-62 1.05255e-62 1.05853e-62 1.06522e-62 1.07324e-62 1.08303e-62 1.09483e-62 1.10863e-62 1.12398e-62 1.14005e-62 1.15554e-62 1.16885e-62 1.17826e-62 1.18221e-62 1.17957e-62 1.16982e-62 1.15322e-62 1.13073e-62 1.10391e-62 1.07464e-62 1.0449e-62 1.01648e-62 9.90781e-63 9.6869e-63 9.50468e-63 9.35753e-63 9.23618e-63 9.12685e-63 9.0132e-63 8.87867e-63 8.70936e-63 8.49679e-63 8.24026e-63 7.94819e-63 7.638e-63 7.3343e-63 7.06563e-63 6.86015e-63 6.74111e-63 6.72293e-63 6.8086e-63 6.98894e-63 7.24375e-63 7.54469e-63 7.8593e-63 8.15551e-63 8.40592e-63 8.59106e-63 8.70141e-63 8.73777e-63 8.71019e-63 8.63572e-63 8.53556e-63 8.43191e-63 8.34513e-63 8.29146e-63 8.28151e-63 8.31943e-63 8.40283e-63 8.52305e-63 8.6659e-63 8.81263e-63 8.94123e-63 9.02822e-63 9.05073e-63 8.9889e-63 8.82825e-63 8.56137e-63 8.18885e-63 7.71897e-63 7.16636e-63 6.55005e-63 5.8913e-63 5.21166e-63 4.53158e-63 3.8695e-63 3.24141e-63 2.66046e-63 2.13676e-63 1.67705e-63 1.28457e-63 9.59106e-64 6.97265e-64 4.93109e-64 3.38972e-64 2.26355e-64 1.46763e-64 9.23632e-65 5.64084e-65 3.34279e-65 1.92217e-65 1.07257e-65 5.80867e-66 3.05372e-66 1.55882e-66 7.72872e-67 3.72309e-67 1.74316e-67 7.93552e-68 3.51387e-68 1.51406e-68 6.35079e-69 2.59431e-69 1.03254e-69 4.00556e-70 1.51523e-70 5.59151e-71 2.01372e-71 7.08046e-72 2.43161e-72 8.15958e-73 2.67641e-73 8.58445e-74 2.69347e-74 8.27008e-75 2.48577e-75 7.31675e-76 2.10974e-76 5.9613e-77 1.65118e-77 4.48461e-78 1.19473e-78 3.12293e-79 8.01176e-80 2.01786e-80 4.99087e-81 1.21255e-81 2.89451e-82 6.79004e-83 1.56244e-83 3.37801e-84 0 
0 5.36004e-118 4.27548e-117 3.32474e-116 2.55868e-115 1.94905e-114 1.46939e-113 1.09628e-112 8.09331e-112 5.91169e-111 4.27201e-110 3.05381e-109 2.15921e-108 1.50988e-107 1.04409e-106 7.1389e-106 4.82584e-105 3.22486e-104 2.13006e-103 1.39048e-102 8.96961e-102 5.71693e-101 3.59977e-100 2.23899e-99 1.37543e-98 8.34385e-98 4.9978e-97 2.95537e-96 1.72504e-95 9.93747e-95 5.64903e-94 3.16828e-93 1.75288e-92 9.56514e-92 5.14711e-91 2.73082e-90 1.42824e-89 7.36227e-89 3.73972e-88 1.87155e-87 9.22596e-87 4.47902e-86 2.14104e-85 1.0075e-84 4.66601e-84 2.12635e-83 9.53253e-83 4.20306e-82 1.82222e-81 7.7662e-81 3.25294e-80 1.33872e-79 5.41169e-79 2.14826e-78 8.37197e-78 3.20206e-77 1.20161e-76 4.42279e-76 1.59622e-75 5.64688e-75 1.95751e-74 6.64706e-74 2.21022e-73 7.1939e-73 2.29118e-72 7.13766e-72 2.17414e-71 6.47267e-71 1.88265e-70 5.34769e-70 1.48283e-69 4.01202e-69 1.05874e-68 2.72381e-68 6.82864e-68 1.66749e-67 3.96431e-67 9.17162e-67 2.06395e-66 4.51573e-66 9.60139e-66 1.983e-65 3.9765e-65 7.73899e-65 1.46114e-64 2.67519e-64 4.74801e-64 8.16615e-64 1.36063e-63 2.19566e-63 3.43088e-63 5.19028e-63 7.60123e-63 1.07765e-62 1.47914e-62 1.96584e-62 2.53062e-62 3.15668e-62 3.81789e-62 4.48084e-62 5.10856e-62 5.66554e-62 6.1228e-62 6.46235e-62 6.67968e-62 6.78413e-62 6.79677e-62 6.74661e-62 6.66574e-62 6.58467e-62 6.52844e-62 6.51418e-62 6.55028e-62 6.63674e-62 6.76673e-62 6.9286e-62 7.10822e-62 7.29123e-62 7.46502e-62 7.62021e-62 7.75143e-62 7.85736e-62 7.94019e-62 8.00458e-62 8.05657e-62 8.10253e-62 8.14855e-62 8.20008e-62 8.26169e-62 8.33687e-62 8.42752e-62 8.53336e-62 8.65117e-62 8.77439e-62 8.89317e-62 8.99522e-62 9.06737e-62 9.09761e-62 9.07721e-62 9.00232e-62 8.87485e-62 8.70224e-62 8.49635e-62 8.2717e-62 8.04342e-62 7.82527e-62 7.62808e-62 7.45857e-62 7.31873e-62 7.2058e-62 7.11264e-62 7.02868e-62 6.94133e-62 6.8379e-62 6.7077e-62 6.54423e-62 6.34696e-62 6.12238e-62 5.88387e-62 5.65036e-62 5.44378e-62 5.28577e-62 5.1942e-62 5.18016e-62 5.24595e-62 5.38451e-62 5.58033e-62 5.81163e-62 6.05347e-62 6.28122e-62 6.47379e-62 6.61625e-62 6.70125e-62 6.7294e-62 6.70841e-62 6.65136e-62 6.57455e-62 6.495e-62 6.42836e-62 6.38712e-62 6.37941e-62 6.40845e-62 6.47239e-62 6.5646e-62 6.67419e-62 6.78676e-62 6.88543e-62 6.95215e-62 6.96935e-62 6.92178e-62 6.7983e-62 6.59319e-62 6.30688e-62 5.94569e-62 5.52082e-62 5.04688e-62 4.54014e-62 4.01717e-62 3.49367e-62 2.98385e-62 2.50002e-62 2.05234e-62 1.64864e-62 1.29415e-62 9.91428e-63 7.4033e-63 5.38275e-63 3.80707e-63 2.61725e-63 1.74783e-63 1.13331e-63 7.13258e-64 4.35616e-64 2.58153e-64 1.48445e-64 8.28328e-65 4.48592e-65 2.35832e-65 1.20383e-65 5.9686e-66 2.87517e-66 1.34615e-66 6.12809e-67 2.7135e-67 1.16919e-67 4.90418e-68 2.00335e-68 7.97336e-69 3.09314e-69 1.17008e-69 4.3179e-70 1.55506e-70 5.46787e-71 1.87785e-71 6.30153e-72 2.06702e-72 6.6301e-73 2.08036e-73 6.38786e-74 1.92012e-74 5.65211e-75 1.62985e-75 4.60562e-76 1.27577e-76 3.46526e-77 9.23246e-78 2.41349e-78 6.19228e-79 1.55975e-79 3.85819e-80 9.37459e-81 2.23808e-81 5.25075e-82 1.20838e-82 2.61281e-83 0 
0 4.12494e-117 3.2895e-116 2.55738e-115 1.96765e-114 1.49847e-113 1.12943e-112 8.42439e-112 6.21786e-111 4.54071e-110 3.28052e-109 2.3445e-108 1.65731e-107 1.15865e-106 8.01032e-106 5.47578e-105 3.70076e-104 2.47248e-103 1.63275e-102 1.06561e-101 6.87252e-101 4.37939e-100 2.757e-99 1.71445e-98 1.05298e-97 6.3865e-97 3.82464e-96 2.2612e-95 1.3196e-94 7.60042e-94 4.31971e-93 2.42228e-92 1.33991e-91 7.31035e-91 3.9331e-90 2.08637e-89 1.09101e-88 5.623e-88 2.85579e-87 1.42896e-86 7.04314e-86 3.4188e-85 1.634e-84 7.68796e-84 3.56004e-83 1.62213e-82 7.27119e-82 3.20561e-81 1.38962e-80 5.9218e-80 2.48013e-79 1.02057e-78 4.12518e-78 1.63741e-77 6.38056e-77 2.4402e-76 9.15641e-76 3.36997e-75 1.21616e-74 4.30211e-74 1.49126e-73 5.06356e-73 1.68361e-72 5.47965e-72 1.74515e-71 5.43645e-71 1.65591e-70 4.92974e-70 1.43385e-69 4.07283e-69 1.12933e-68 3.05556e-68 8.06341e-68 2.07449e-67 5.20086e-67 1.27003e-66 3.01944e-66 6.98579e-66 1.5721e-65 3.43972e-65 7.3138e-65 1.51059e-64 3.02929e-64 5.89575e-64 1.11317e-63 2.03817e-63 3.61754e-63 6.22204e-63 1.03674e-62 1.67305e-62 2.61432e-62 3.95508e-62 5.79238e-62 8.21222e-62 1.12719e-61 1.4981e-61 1.92852e-61 2.40566e-61 2.9096e-61 3.41488e-61 3.89336e-61 4.31796e-61 4.66662e-61 4.92563e-61 5.09155e-61 5.17149e-61 5.18149e-61 5.14361e-61 5.0823e-61 5.02077e-61 4.97806e-61 4.96724e-61 4.99467e-61 5.06038e-61 5.15917e-61 5.2822e-61 5.41873e-61 5.55785e-61 5.68997e-61 5.80797e-61 5.90776e-61 5.98835e-61 6.05139e-61 6.10044e-61 6.14006e-61 6.17509e-61 6.21017e-61 6.24942e-61 6.29631e-61 6.35347e-61 6.42236e-61 6.50276e-61 6.59224e-61 6.6858e-61 6.77598e-61 6.85343e-61 6.90817e-61 6.93108e-61 6.91551e-61 6.85856e-61 6.76167e-61 6.63048e-61 6.47403e-61 6.30333e-61 6.12987e-61 5.96414e-61 5.81433e-61 5.68555e-61 5.57932e-61 5.49352e-61 5.42273e-61 5.35889e-61 5.29243e-61 5.21371e-61 5.11459e-61 4.99014e-61 4.83997e-61 4.66901e-61 4.48745e-61 4.30971e-61 4.15246e-61 4.03217e-61 3.96244e-61 3.9517e-61 4.00172e-61 4.10711e-61 4.25609e-61 4.43209e-61 4.61614e-61 4.78949e-61 4.93611e-61 5.04462e-61 5.10944e-61 5.13102e-61 5.1152e-61 5.07194e-61 5.01361e-61 4.95317e-61 4.90252e-61 4.87114e-61 4.86523e-61 4.88723e-61 4.93576e-61 5.00578e-61 5.08901e-61 5.17452e-61 5.24946e-61 5.30012e-61 5.31314e-61 5.27691e-61 5.18295e-61 5.02689e-61 4.80904e-61 4.53418e-61 4.2108e-61 3.84997e-61 3.46406e-61 3.06566e-61 2.66672e-61 2.27805e-61 1.90905e-61 1.5675e-61 1.2594e-61 9.88767e-62 7.57591e-62 5.6579e-62 4.11418e-62 2.91012e-62 2.00078e-62 1.33623e-62 8.66462e-63 5.45335e-63 3.33067e-63 1.97384e-63 1.13502e-63 6.33344e-64 3.42994e-64 1.80316e-64 9.20432e-65 4.56343e-65 2.19823e-65 1.02919e-65 4.68512e-66 2.07452e-66 8.93852e-67 3.74922e-67 1.53154e-67 6.09548e-68 2.36464e-68 8.94501e-69 3.30094e-69 1.18882e-69 4.18014e-70 1.43562e-70 4.81764e-71 1.58031e-71 5.06912e-72 1.59062e-72 4.88428e-73 1.46823e-73 4.32212e-74 1.2464e-74 3.52229e-75 9.75745e-76 2.65052e-76 7.06229e-77 1.84633e-77 4.73752e-78 1.19342e-78 2.95232e-79 7.17423e-80 1.71295e-80 4.01918e-81 9.25057e-82 2.00041e-82 0 
0 3.14201e-116 2.50505e-115 1.94704e-114 1.49769e-113 1.1403e-112 8.59263e-112 6.40768e-111 4.72826e-110 3.45209e-109 2.49345e-108 1.78159e-107 1.25911e-106 8.80061e-106 6.08293e-105 4.15731e-104 2.80907e-103 1.87633e-102 1.23881e-101 8.08333e-101 5.21213e-100 3.32065e-99 2.09004e-98 1.29944e-97 7.97931e-97 4.83863e-96 2.89711e-95 1.71249e-94 9.99199e-94 5.75395e-93 3.26967e-92 1.83314e-91 1.01384e-90 5.53042e-90 2.97496e-89 1.57785e-88 8.24959e-88 4.25111e-87 2.15871e-86 1.08e-85 5.32235e-85 2.58314e-84 1.23443e-83 5.80721e-83 2.68878e-82 1.22499e-81 5.49032e-81 2.4202e-80 1.04903e-79 4.46992e-79 1.87187e-78 7.70195e-78 3.11287e-77 1.23548e-76 4.81397e-76 1.84092e-75 6.90723e-75 2.542e-74 9.17307e-74 3.24474e-73 1.12468e-72 3.81868e-72 1.26964e-71 4.13217e-71 1.31597e-70 4.09938e-70 1.24862e-69 3.71718e-69 1.08116e-68 3.07102e-68 8.51548e-68 2.304e-67 6.08018e-67 1.56429e-66 3.92184e-66 9.5772e-66 2.27701e-65 5.26827e-65 1.18563e-64 2.59422e-64 5.51626e-64 1.13937e-63 2.28496e-63 4.4473e-63 8.39728e-63 1.53757e-62 2.72913e-62 4.6942e-62 7.82192e-62 1.26231e-61 1.97257e-61 2.98428e-61 4.37072e-61 6.19676e-61 8.50567e-61 1.13047e-60 1.45529e-60 1.81537e-60 2.19568e-60 2.57703e-60 2.93816e-60 3.25867e-60 3.52192e-60 3.71755e-60 3.84299e-60 3.90356e-60 3.91138e-60 3.88306e-60 3.83703e-60 3.79078e-60 3.75867e-60 3.75053e-60 3.77117e-60 3.82061e-60 3.89495e-60 3.98754e-60 4.09029e-60 4.195e-60 4.29445e-60 4.38329e-60 4.45843e-60 4.51913e-60 4.56664e-60 4.60363e-60 4.63352e-60 4.65997e-60 4.68644e-60 4.71604e-60 4.75136e-60 4.7944e-60 4.84624e-60 4.90671e-60 4.974e-60 5.04434e-60 5.11213e-60 5.17034e-60 5.21146e-60 5.22864e-60 5.21688e-60 5.17399e-60 5.10107e-60 5.00236e-60 4.88464e-60 4.75621e-60 4.62572e-60 4.50104e-60 4.38835e-60 4.29149e-60 4.21158e-60 4.14705e-60 4.09378e-60 4.04572e-60 3.99567e-60 3.93634e-60 3.86163e-60 3.76782e-60 3.65463e-60 3.52577e-60 3.38893e-60 3.25496e-60 3.13644e-60 3.04577e-60 2.9932e-60 2.98507e-60 3.02272e-60 3.1021e-60 3.21432e-60 3.34692e-60 3.48561e-60 3.61625e-60 3.72679e-60 3.80863e-60 3.85757e-60 3.87394e-60 3.86214e-60 3.82966e-60 3.7858e-60 3.74034e-60 3.70221e-60 3.67857e-60 3.67408e-60 3.69059e-60 3.72707e-60 3.77971e-60 3.8423e-60 3.90661e-60 3.96297e-60 4.00106e-60 4.01081e-60 3.98349e-60 3.9127e-60 3.79513e-60 3.63101e-60 3.4239e-60 3.18018e-60 2.90817e-60 2.61717e-60 2.31665e-60 2.0156e-60 1.7222e-60 1.44354e-60 1.18551e-60 9.52666e-61 7.48075e-61 5.73259e-61 4.28182e-61 3.1139e-61 2.20279e-61 1.51459e-61 1.01159e-61 6.55983e-62 4.12877e-62 2.52173e-62 1.49446e-62 8.59363e-63 4.79525e-63 2.59689e-63 1.36519e-63 6.96857e-64 3.45488e-64 1.6642e-64 7.79144e-65 3.54676e-65 1.57043e-65 6.76638e-66 2.83807e-66 1.15932e-66 4.61397e-67 1.78989e-67 6.77078e-68 2.49858e-68 8.99851e-69 3.16409e-69 1.08668e-69 3.64671e-70 1.19624e-70 3.83723e-71 1.2041e-71 3.69754e-72 1.11153e-72 3.27224e-73 9.43688e-74 2.66697e-74 7.38848e-75 2.00714e-75 5.34839e-76 1.39836e-76 3.58835e-77 9.04016e-78 2.23658e-78 5.43546e-79 1.29792e-79 3.04569e-80 7.01074e-81 1.51621e-81 0 
0 2.36864e-115 1.88801e-114 1.4671e-113 1.12824e-112 8.58801e-112 6.46988e-111 4.82357e-110 3.5585e-109 2.59745e-108 1.87571e-107 1.33991e-106 9.46738e-106 6.61581e-105 4.57179e-104 3.12385e-103 2.11031e-102 1.40929e-101 9.30254e-101 6.06871e-100 3.91229e-99 2.49201e-98 1.56817e-97 9.74783e-97 5.98454e-96 3.6283e-95 2.17201e-94 1.28365e-93 7.48836e-93 4.31143e-92 2.44952e-91 1.37308e-90 7.59272e-90 4.14105e-89 2.22721e-88 1.18107e-87 6.1741e-87 3.18109e-86 1.61511e-85 8.07918e-85 3.98094e-84 1.93184e-83 9.23062e-83 4.34185e-82 2.01005e-81 9.15652e-81 4.10342e-80 1.80864e-79 7.83865e-79 3.3397e-78 1.39843e-77 5.75343e-77 2.32514e-76 9.22759e-76 3.59519e-75 1.37475e-74 5.15778e-74 1.89805e-73 6.84894e-73 2.42252e-72 8.39648e-72 2.85078e-71 9.47804e-71 3.08463e-70 9.82339e-70 3.06005e-69 9.32046e-69 2.77471e-68 8.07039e-68 2.2924e-67 6.35654e-67 1.71989e-66 4.53883e-66 1.16777e-65 2.9278e-65 7.14998e-65 1.69999e-64 3.9334e-64 8.85255e-64 1.93708e-63 4.11913e-63 8.5084e-63 1.70641e-62 3.3214e-62 6.2717e-62 1.14843e-61 2.03851e-61 3.50646e-61 5.84305e-61 9.42998e-61 1.47364e-60 2.22952e-60 3.2654e-60 4.62976e-60 6.35494e-60 8.44639e-60 1.08734e-59 1.3564e-59 1.64058e-59 1.92555e-59 2.19543e-59 2.43498e-59 2.63178e-59 2.77808e-59 2.87196e-59 2.91741e-59 2.92345e-59 2.90249e-59 2.86827e-59 2.83385e-59 2.80993e-59 2.80387e-59 2.81924e-59 2.85608e-59 2.91147e-59 2.98045e-59 3.05701e-59 3.13504e-59 3.20915e-59 3.27537e-59 3.33138e-59 3.37665e-59 3.4121e-59 3.43971e-59 3.46205e-59 3.48181e-59 3.50159e-59 3.52368e-59 3.55004e-59 3.58212e-59 3.62073e-59 3.66577e-59 3.71586e-59 3.76822e-59 3.81866e-59 3.86198e-59 3.89256e-59 3.90532e-59 3.89653e-59 3.86455e-59 3.81021e-59 3.73667e-59 3.64898e-59 3.55332e-59 3.45612e-59 3.36327e-59 3.27934e-59 3.20721e-59 3.14771e-59 3.09965e-59 3.05997e-59 3.02415e-59 2.98683e-59 2.94257e-59 2.88681e-59 2.81681e-59 2.73233e-59 2.63617e-59 2.53406e-59 2.43409e-59 2.34565e-59 2.27798e-59 2.23873e-59 2.23264e-59 2.2607e-59 2.31989e-59 2.4036e-59 2.50251e-59 2.60597e-59 2.70346e-59 2.78596e-59 2.84707e-59 2.88366e-59 2.89595e-59 2.88723e-59 2.86309e-59 2.83044e-59 2.79658e-59 2.76816e-59 2.75053e-59 2.74716e-59 2.75943e-59 2.78656e-59 2.82575e-59 2.87235e-59 2.92023e-59 2.9622e-59 2.99056e-59 2.99779e-59 2.9774e-59 2.92459e-59 2.8369e-59 2.71448e-59 2.55997e-59 2.37811e-59 2.17509e-59 1.95783e-59 1.73338e-59 1.50846e-59 1.28916e-59 1.0808e-59 8.87788e-60 7.13552e-60 5.60408e-60 4.29513e-60 3.20857e-60 2.33366e-60 1.651e-60 1.13528e-60 7.5829e-61 4.9175e-61 3.09518e-61 1.89048e-61 1.12037e-61 6.44247e-62 3.59487e-62 1.94679e-62 1.02341e-62 5.22382e-63 2.5898e-63 1.24746e-63 5.84014e-64 2.65842e-64 1.17706e-64 5.07133e-65 2.12704e-65 8.68847e-66 3.45785e-66 1.34137e-66 5.07405e-67 1.87243e-67 6.7434e-68 2.37113e-68 8.14345e-69 2.73282e-69 8.96464e-70 2.87568e-70 9.0239e-71 2.77112e-71 8.33066e-72 2.45255e-72 7.07327e-73 1.99908e-73 5.53849e-74 1.50467e-74 4.0097e-75 1.04843e-75 2.69058e-76 6.77894e-77 1.67728e-77 4.07659e-78 9.7353e-79 2.28471e-79 5.2596e-80 1.1376e-80 0 
0 1.76704e-114 1.40816e-113 1.09396e-112 8.41081e-112 6.4007e-111 4.8209e-110 3.59334e-109 2.65031e-108 1.93409e-107 1.39635e-106 9.97255e-106 7.04472e-105 4.92176e-104 3.40039e-103 2.32294e-102 1.56892e-101 1.04752e-100 6.91308e-100 4.50896e-99 2.90617e-98 1.85077e-97 1.16442e-96 7.23664e-96 4.44197e-95 2.69256e-94 1.61154e-93 9.52235e-93 5.55401e-92 3.19715e-91 1.81613e-90 1.01786e-89 5.62748e-89 3.0687e-88 1.6502e-87 8.74944e-87 4.5731e-86 2.35585e-85 1.19594e-84 5.98154e-84 2.94694e-83 1.42987e-82 6.83127e-82 3.21285e-81 1.4872e-80 6.77396e-80 3.03536e-79 1.33773e-78 5.79714e-78 2.46967e-77 1.03403e-76 4.25382e-76 1.71896e-75 6.82138e-75 2.65751e-74 1.01613e-73 3.81208e-73 1.40276e-72 5.06149e-72 1.79021e-71 6.20465e-71 2.10655e-70 7.00348e-70 2.27924e-69 7.25842e-69 2.26103e-68 6.88674e-68 2.0502e-67 5.96316e-67 1.69386e-66 4.69697e-66 1.27089e-65 3.35401e-65 8.6296e-65 2.16368e-64 5.28415e-64 1.25643e-63 2.90723e-63 6.54338e-63 1.43187e-62 3.045e-62 6.29005e-62 1.26158e-61 2.45572e-61 4.63732e-61 8.49197e-61 1.50745e-60 2.59311e-60 4.32127e-60 6.97431e-60 1.08993e-59 1.64905e-59 2.41531e-59 3.42458e-59 4.70077e-59 6.24794e-59 8.04339e-59 1.00338e-58 1.21362e-58 1.42445e-58 1.62413e-58 1.80139e-58 1.94704e-58 2.05536e-58 2.12492e-58 2.15868e-58 2.16329e-58 2.14793e-58 2.12275e-58 2.09738e-58 2.07975e-58 2.07528e-58 2.08661e-58 2.11377e-58 2.15463e-58 2.20551e-58 2.26199e-58 2.31954e-58 2.37422e-58 2.42308e-58 2.46442e-58 2.49784e-58 2.52403e-58 2.54443e-58 2.56095e-58 2.57557e-58 2.5902e-58 2.60653e-58 2.62599e-58 2.64966e-58 2.67814e-58 2.71134e-58 2.74826e-58 2.78684e-58 2.82401e-58 2.85591e-58 2.87843e-58 2.88781e-58 2.8813e-58 2.8577e-58 2.81762e-58 2.76338e-58 2.69871e-58 2.62817e-58 2.5565e-58 2.48804e-58 2.42617e-58 2.37299e-58 2.32913e-58 2.29369e-58 2.26444e-58 2.23801e-58 2.21045e-58 2.17777e-58 2.13658e-58 2.08486e-58 2.02245e-58 1.95141e-58 1.87598e-58 1.80212e-58 1.73679e-58 1.68679e-58 1.65779e-58 1.65327e-58 1.67397e-58 1.71767e-58 1.77947e-58 1.85252e-58 1.92893e-58 2.00095e-58 2.06191e-58 2.10708e-58 2.13416e-58 2.1433e-58 2.13692e-58 2.11915e-58 2.09509e-58 2.07012e-58 2.04916e-58 2.03613e-58 2.03363e-58 2.04265e-58 2.06264e-58 2.09152e-58 2.12587e-58 2.16117e-58 2.1921e-58 2.213e-58 2.21832e-58 2.20325e-58 2.16425e-58 2.0995e-58 2.0091e-58 1.89498e-58 1.76064e-58 1.61062e-58 1.45004e-58 1.28408e-58 1.1177e-58 9.55424e-59 8.01176e-59 6.58238e-59 5.29154e-59 4.15659e-59 3.18622e-59 2.38051e-59 1.73159e-59 1.22517e-59 8.42525e-60 5.62784e-60 3.6498e-60 2.29733e-60 1.40319e-60 8.31584e-61 4.78184e-61 2.66821e-61 1.44492e-61 7.59564e-62 3.87694e-62 1.92199e-62 9.25754e-63 4.33387e-63 1.97269e-63 8.73407e-64 3.76292e-64 1.57821e-64 6.44639e-65 2.56547e-65 9.95171e-66 3.76437e-66 1.3891e-66 5.00266e-67 1.75903e-67 6.0412e-68 2.02734e-68 6.65043e-69 2.13334e-69 6.69455e-70 2.05585e-70 6.18053e-71 1.81961e-71 5.24802e-72 1.48328e-72 4.10965e-73 1.11655e-73 2.97559e-74 7.78085e-75 1.99694e-75 5.03167e-76 1.24506e-76 3.02634e-77 7.22785e-78 1.69641e-78 3.90567e-79 8.44836e-80 0 
0 1.3044e-113 1.03923e-112 8.07157e-112 6.2043e-111 4.72041e-110 3.5545e-109 2.64879e-108 1.95319e-107 1.42504e-106 1.0286e-105 7.34447e-105 5.18707e-104 3.62312e-103 2.50263e-102 1.70928e-101 1.1542e-100 7.70463e-100 5.0836e-99 3.31502e-98 2.13621e-97 1.36015e-96 8.55576e-96 5.31621e-95 3.26255e-94 1.97726e-93 1.18321e-92 6.9901e-92 4.07631e-91 2.34611e-90 1.33246e-89 7.46659e-89 4.12741e-88 2.25034e-87 1.20993e-86 6.41412e-86 3.35199e-85 1.72653e-84 8.76345e-84 4.38246e-83 2.15883e-82 1.04734e-81 5.00307e-81 2.35273e-80 1.08893e-79 4.95937e-79 2.22202e-78 9.79177e-78 4.24292e-77 1.80738e-76 7.56667e-76 3.11256e-75 1.25768e-74 4.99054e-74 1.94411e-73 7.43309e-73 2.78843e-72 1.02603e-71 3.70201e-71 1.30933e-70 4.53783e-70 1.54061e-69 5.12185e-69 1.66686e-68 5.30821e-68 1.65353e-67 5.03642e-67 1.49937e-66 4.36111e-66 1.23882e-65 3.43527e-65 9.29537e-65 2.45323e-64 6.31224e-64 1.58273e-63 3.86554e-63 9.19172e-63 2.12699e-62 4.78755e-62 1.04771e-61 2.22819e-61 4.60308e-61 9.23287e-61 1.79734e-60 3.39427e-60 6.21605e-60 1.10351e-59 1.89836e-59 3.16367e-59 5.10626e-59 7.98031e-59 1.20746e-58 1.76859e-58 2.50769e-58 3.44228e-58 4.57534e-58 5.89024e-58 7.34796e-58 8.88772e-58 1.04318e-57 1.18944e-57 1.31928e-57 1.426e-57 1.50539e-57 1.55642e-57 1.58124e-57 1.58472e-57 1.57357e-57 1.55522e-57 1.53672e-57 1.52385e-57 1.52058e-57 1.52885e-57 1.54868e-57 1.57851e-57 1.61566e-57 1.6569e-57 1.69893e-57 1.73886e-57 1.77455e-57 1.80475e-57 1.82917e-57 1.84832e-57 1.86325e-57 1.87534e-57 1.88604e-57 1.89675e-57 1.9087e-57 1.92292e-57 1.94021e-57 1.961e-57 1.98523e-57 2.01216e-57 2.04031e-57 2.06741e-57 2.09068e-57 2.10709e-57 2.11391e-57 2.10915e-57 2.09191e-57 2.06264e-57 2.02304e-57 1.97583e-57 1.92434e-57 1.87203e-57 1.82206e-57 1.77691e-57 1.7381e-57 1.70609e-57 1.68024e-57 1.65888e-57 1.63959e-57 1.61945e-57 1.59555e-57 1.56543e-57 1.52761e-57 1.48197e-57 1.43002e-57 1.37485e-57 1.32085e-57 1.27307e-57 1.2365e-57 1.21528e-57 1.21196e-57 1.22708e-57 1.25902e-57 1.30419e-57 1.35759e-57 1.41346e-57 1.46612e-57 1.51071e-57 1.54377e-57 1.5636e-57 1.57033e-57 1.56571e-57 1.55276e-57 1.53521e-57 1.51698e-57 1.50167e-57 1.49215e-57 1.4903e-57 1.49687e-57 1.51145e-57 1.53252e-57 1.55758e-57 1.58334e-57 1.60592e-57 1.62116e-57 1.62503e-57 1.614e-57 1.5855e-57 1.53817e-57 1.47209e-57 1.38866e-57 1.29042e-57 1.18068e-57 1.06318e-57 9.41703e-58 8.19875e-58 7.00997e-58 5.87955e-58 4.83159e-58 3.88485e-58 3.05215e-58 2.33999e-58 1.7485e-58 1.27201e-58 9.00082e-59 6.19018e-59 4.13511e-59 2.68183e-59 1.68809e-59 1.03108e-59 6.1106e-60 3.51373e-60 1.96058e-60 1.06169e-60 5.58087e-61 2.84846e-61 1.41207e-61 6.8011e-62 3.18376e-62 1.44912e-62 6.41564e-63 2.76394e-63 1.15917e-63 4.7346e-64 1.88415e-64 7.30857e-65 2.76448e-65 1.0201e-65 3.67367e-66 1.2917e-66 4.43617e-67 1.4887e-67 4.88347e-68 1.56654e-68 4.91591e-69 1.50966e-69 4.5386e-70 1.33624e-70 3.85403e-71 1.08933e-71 3.01826e-72 8.20066e-73 2.18559e-73 5.71539e-74 1.46694e-74 3.69648e-75 9.1474e-76 2.22361e-76 5.31112e-77 1.24665e-77 2.87046e-78 6.20963e-79 0 
0 9.52676e-113 7.58835e-112 5.89235e-111 4.52815e-110 3.44433e-109 2.59301e-108 1.93185e-107 1.4242e-106 1.03885e-105 7.49681e-105 5.35172e-104 3.77885e-103 2.63892e-102 1.82241e-101 1.24443e-100 8.40131e-100 5.60695e-99 3.69877e-98 2.41148e-97 1.55365e-96 9.89034e-96 6.22012e-95 3.86419e-94 2.371e-93 1.43667e-92 8.59557e-92 5.07714e-91 2.96024e-90 1.70346e-89 9.67311e-89 5.41952e-88 2.99533e-87 1.63285e-86 8.77791e-86 4.65268e-85 2.43111e-84 1.25203e-83 6.35411e-83 3.17716e-82 1.56489e-81 7.59098e-81 3.62572e-80 1.70483e-79 7.88971e-79 3.59285e-78 1.60959e-77 7.09231e-77 3.07292e-76 1.30888e-75 5.47922e-75 2.25372e-74 9.10591e-74 3.61303e-73 1.40741e-72 5.38078e-72 2.01844e-71 7.42677e-71 2.67954e-70 9.47673e-70 3.28435e-69 1.11503e-68 3.70696e-68 1.20639e-67 3.84183e-67 1.19675e-66 3.6452e-66 1.08522e-65 3.15658e-65 8.9669e-65 2.48662e-64 6.72876e-64 1.77594e-63 4.56977e-63 1.14589e-62 2.7988e-62 6.65559e-62 1.54022e-61 3.46707e-61 7.58792e-61 1.61386e-60 3.33421e-60 6.68826e-60 1.30208e-59 2.45915e-59 4.50386e-59 7.99602e-59 1.37564e-58 2.29269e-58 3.70067e-58 5.78386e-58 8.75168e-58 1.28192e-57 1.8177e-57 2.49521e-57 3.3166e-57 4.26984e-57 5.32662e-57 6.44291e-57 7.56237e-57 8.62278e-57 9.56432e-57 1.03383e-56 1.09143e-56 1.12848e-56 1.14653e-56 1.14913e-56 1.14113e-56 1.12789e-56 1.11453e-56 1.10523e-56 1.10286e-56 1.10884e-56 1.12317e-56 1.14472e-56 1.17157e-56 1.20137e-56 1.23175e-56 1.26062e-56 1.28642e-56 1.30826e-56 1.32592e-56 1.33977e-56 1.35058e-56 1.35934e-56 1.3671e-56 1.37486e-56 1.38351e-56 1.39381e-56 1.40631e-56 1.42133e-56 1.43883e-56 1.45827e-56 1.47859e-56 1.49816e-56 1.51495e-56 1.52679e-56 1.53171e-56 1.52825e-56 1.51579e-56 1.49463e-56 1.46601e-56 1.4319e-56 1.3947e-56 1.35691e-56 1.32081e-56 1.2882e-56 1.26017e-56 1.23705e-56 1.21838e-56 1.20295e-56 1.189e-56 1.17444e-56 1.15715e-56 1.13535e-56 1.10797e-56 1.07493e-56 1.03733e-56 9.97397e-57 9.58306e-57 9.23718e-57 8.97249e-57 8.81883e-57 8.79471e-57 8.90401e-57 9.13501e-57 9.46184e-57 9.84822e-57 1.02525e-56 1.06337e-56 1.09565e-56 1.1196e-56 1.13398e-56 1.13888e-56 1.13557e-56 1.12623e-56 1.11356e-56 1.10038e-56 1.08932e-56 1.08243e-56 1.08108e-56 1.08582e-56 1.09634e-56 1.11155e-56 1.12965e-56 1.14826e-56 1.16456e-56 1.17557e-56 1.17836e-56 1.17038e-56 1.14975e-56 1.11551e-56 1.06769e-56 1.00732e-56 9.36208e-57 8.56758e-57 7.71655e-57 6.83639e-57 5.95334e-57 5.09131e-57 4.27126e-57 3.51071e-57 2.82336e-57 2.21859e-57 1.70119e-57 1.27135e-57 9.24997e-58 6.54595e-58 4.50221e-58 3.00769e-58 1.95072e-58 1.22791e-58 7.50013e-59 4.44485e-59 2.55584e-59 1.42606e-59 7.72215e-60 4.05906e-60 2.07164e-60 1.02692e-60 4.94583e-61 2.31514e-61 1.0537e-61 4.66476e-62 2.00953e-62 8.42737e-63 3.44195e-63 1.36968e-63 5.31269e-64 2.00946e-64 7.41467e-65 2.67015e-65 9.3883e-66 3.2242e-66 1.08197e-66 3.5492e-67 1.13852e-67 3.57275e-68 1.09719e-68 3.29859e-69 9.71175e-70 2.80116e-70 7.9176e-71 2.19385e-71 5.96095e-72 1.58874e-72 4.15484e-73 1.06646e-73 2.68749e-74 6.65099e-75 1.61688e-75 3.86224e-76 9.06641e-77 2.08775e-77 4.51678e-78 0 