# vtk DataFile Version 3.0
Gray-Scott Simulation Output
ASCII
DATASET STRUCTURED_POINTS
DIMENSIONS 256 256 1
SPACING 1.0 1.0 1.0
ORIGIN 0 0 0
POINT_DATA 65536
SCALARS u double
LOOKUP_TABLE default
0 0 0 0 0 0 0 0 0 0 0 0 0 0 0 0 0 0 0 0 0 0 0 0 0 0 0 0 0 0 0 0 0 0 0 0 0 0 0 0 0 0 0 0 0 0 0 0 0 0 0 0 0 0 0 0 0 0 0 0 0 0 0 0 0 0 0 0 0 0 0 0 0 0 0 0 0 0 0 0 0 0 0 0 0 0 0 0 0 0 0 0 0 0 0 0 0 0 0 0 0 0 0 0 0 0 0 0 0 0 0 0 0 0 0 0 0 0 0 0 0 0 0 0 0 0 0 0 0 0 0 0 0 0 0 0 0 0 0 0 0 0 0 0 0 0 0 0 0 0 0 0 0 0 0 0 0 0 0 0 0 0 0 0 0 0 0 0 0 0 0 0 0 0 0 0 0 0 0 0 0 0 0 0 0 0 0 0 0 0 0 0 0 0 0 0 0 0 0 0 0 0 0 0 0 0 0 0 0 0 0 0 0 0 0 0 0 0 0 0 0 0 0 0 0 0 0 0 0 0 0 0 0 0 0 0 0 0 0 0 0 0 0 0 0 0 0 0 0 0 0 0 0 0 0 0 
0 9.9971e-122 8.2336e-121 6.61698e-120 5.26275e-119 4.14282e-118 3.22753e-117 2.48824e-116 1.8981e-115 1.43254e-114 1.06957e-113 7.89919e-113 5.77002e-112 4.16819e-111 2.97744e-110 2.10288e-109 1.46829e-108 1.0134e-107 6.9131e-107 4.66048e-106 3.10456e-105 2.04327e-104 1.32846e-103 8.53118e-103 5.41065e-102 3.3885e-101 2.09517e-100 1.27886e-99 7.70461e-99 4.58074e-98 2.68727e-97 1.55526e-96 8.8786e-96 4.99871e-95 2.77504e-94 1.5188e-93 8.1936e-93 4.35621e-92 2.28202e-91 1.17767e-90 5.98593e-90 2.9961e-89 1.4764e-88 7.16112e-88 3.41815e-87 1.60523e-86 7.41504e-86 3.36836e-85 1.50433e-84 6.60359e-84 2.84849e-83 1.20706e-82 5.02352e-82 2.05271e-81 8.23302e-81 3.24024e-80 1.25097e-79 4.73622e-79 1.75789e-78 6.39418e-78 2.27856e-77 7.95185e-77 2.71676e-76 9.08343e-76 2.97098e-75 9.50237e-75 2.9708e-74 9.07504e-74 2.70754e-73 7.88617e-73 2.24148e-72 6.2142e-72 1.67966e-71 4.42429e-71 1.13513e-70 2.83546e-70 6.89235e-70 1.62954e-69 3.74549e-69 8.36535e-69 1.8146e-68 3.82113e-68 7.80748e-68 1.54717e-67 2.97222e-67 5.53293e-67 9.97665e-67 1.74185e-66 2.94366e-66 4.81382e-66 7.61576e-66 1.16541e-65 1.72481e-65 2.46877e-65 3.41763e-65 4.57658e-65 5.92998e-65 7.43783e-65 9.03613e-65 1.06418e-64 1.21622e-64 1.35078e-64 1.46054e-64 1.54096e-64 1.59096e-64 1.61296e-64 1.61241e-64 1.5967e-64 1.57396e-64 1.55185e-64 1.53658e-64 1.53232e-64 1.54101e-64 1.56247e-64 1.59486e-64 1.63513e-64 1.67965e-64 1.72479e-64 1.76737e-64 1.80505e-64 1.83653e-64 1.86157e-64 1.8808e-64 1.89545e-64 1.90709e-64 1.91732e-64 1.92765e-64 1.93941e-64 1.95373e-64 1.97151e-64 1.99328e-64 2.01903e-64 2.04805e-64 2.07875e-64 2.10866e-64 2.13466e-64 2.15336e-64 2.16166e-64 2.15726e-64 2.13917e-64 2.10785e-64 2.06522e-64 2.01432e-64 1.95883e-64 1.90259e-64 1.84907e-64 1.801e-64 1.76004e-64 1.7267e-64 1.70029e-64 1.67901e-64 1.66019e-64 1.64066e-64 1.61714e-64 1.58686e-64 1.54807e-64 1.50051e-64 1.44574e-64 1.38707e-64 1.32926e-64 1.2779e-64 1.23849e-64 1.21561e-64 1.2121e-64 1.22858e-64 1.26327e-64 1.31222e-64 1.36991e-64 1.43004e-64 1.48639e-64 1.53367e-64 1.56817e-64 1.58813e-64 1.59378e-64 1.58717e-64 1.57167e-64 1.55141e-64 1.53071e-64 1.51348e-64 1.50283e-64 1.50075e-64 1.50801e-64 1.52412e-64 1.54745e-64 1.57528e-64 1.60408e-64 1.62965e-64 1.64751e-64 1.65327e-64 1.64311e-64 1.61424e-64 1.56524e-64 1.49628e-64 1.40903e-64 1.30635e-64 1.19197e-64 1.06995e-64 9.44373e-65 8.19057e-65 6.97399e-65 5.82312e-65 4.76179e-65 3.80812e-65 2.97408e-65 2.26513e-65 1.68023e-65 1.21251e-65 8.50392e-66 5.79192e-66 3.82843e-66 2.45477e-66 1.52635e-66 9.20165e-67 5.37791e-67 3.04724e-67 1.67414e-67 8.91967e-68 4.60975e-68 2.31156e-68 1.12505e-68 5.31666e-69 2.44045e-69 1.08854e-69 4.72002e-70 1.99047e-70 8.1672e-71 3.26203e-71 1.2688e-71 4.8082e-72 1.77602e-72 6.39706e-73 2.24785e-73 7.70895e-74 2.58135e-74 8.44308e-75 2.69857e-75 8.43175e-76 2.57645e-76 7.7021e-77 2.25342e-77 6.45475e-78 1.81081e-78 4.97704e-79 1.34067e-79 3.54051e-80 9.16943e-81 2.32963e-81 5.80804e-82 1.42134e-82 3.41523e-83 8.05962e-84 1.86852e-84 4.25647e-85 9.51215e-86 2.0019e-86 0 
0 8.22999e-121 6.7765e-120 5.44458e-119 4.32918e-118 3.40706e-117 2.65365e-116 2.0453e-115 1.55983e-114 1.17694e-113 8.7852e-113 6.48661e-112 4.73704e-111 3.42115e-110 2.44322e-109 1.72517e-108 1.20428e-107 8.3099e-107 5.66743e-106 3.81984e-105 2.54399e-104 1.67395e-103 1.0881e-102 6.98608e-102 4.42975e-101 2.77359e-100 1.7146e-99 1.04634e-98 6.30247e-98 3.74634e-97 2.19732e-96 1.27145e-95 7.25694e-95 4.08491e-94 2.26731e-93 1.24068e-92 6.69195e-92 3.55719e-91 1.86312e-90 9.61319e-90 4.88541e-89 2.44485e-88 1.20456e-87 5.84164e-87 2.7879e-86 1.30904e-85 6.04596e-85 2.74604e-84 1.22623e-83 5.38204e-83 2.32125e-82 9.83517e-82 4.09266e-81 1.67213e-80 6.70584e-80 2.63889e-79 1.0187e-78 3.85643e-78 1.43121e-77 5.20542e-77 1.85478e-76 6.47239e-76 2.21113e-75 7.39233e-75 2.41769e-74 7.73226e-74 2.41726e-73 7.38371e-73 2.20282e-72 6.41584e-72 1.8235e-71 5.05524e-71 1.36636e-70 3.59896e-70 9.23362e-70 2.30645e-69 5.60637e-69 1.32549e-68 3.04662e-68 6.80447e-68 1.47602e-67 3.10818e-67 6.3508e-67 1.25852e-66 2.41773e-66 4.50076e-66 8.11562e-66 1.41694e-65 2.39461e-65 3.916e-65 6.19543e-65 9.48075e-65 1.40316e-64 2.00841e-64 2.78034e-64 3.72321e-64 4.82429e-64 6.05104e-64 7.35142e-64 8.65787e-64 9.89505e-64 1.09901e-63 1.18836e-63 1.25385e-63 1.2946e-63 1.3126e-63 1.31225e-63 1.29956e-63 1.28114e-63 1.26322e-63 1.25084e-63 1.24739e-63 1.25444e-63 1.27186e-63 1.29815e-63 1.33083e-63 1.36698e-63 1.40362e-63 1.43818e-63 1.46878e-63 1.49435e-63 1.51469e-63 1.53032e-63 1.54224e-63 1.55172e-63 1.56005e-63 1.56846e-63 1.57803e-63 1.58967e-63 1.60411e-63 1.62177e-63 1.64267e-63 1.66621e-63 1.6911e-63 1.71535e-63 1.73642e-63 1.75158e-63 1.75829e-63 1.7547e-63 1.74001e-63 1.71459e-63 1.67999e-63 1.63868e-63 1.59365e-63 1.54802e-63 1.5046e-63 1.46559e-63 1.43237e-63 1.40532e-63 1.38389e-63 1.36661e-63 1.35133e-63 1.33546e-63 1.31634e-63 1.29172e-63 1.26018e-63 1.22152e-63 1.177e-63 1.12931e-63 1.08232e-63 1.04057e-63 1.00854e-63 9.89932e-64 9.87072e-64 1.00045e-63 1.02862e-63 1.06838e-63 1.11526e-63 1.16412e-63 1.20992e-63 1.24836e-63 1.27642e-63 1.29267e-63 1.29731e-63 1.29198e-63 1.27942e-63 1.263e-63 1.24621e-63 1.23222e-63 1.22357e-63 1.22186e-63 1.22774e-63 1.2408e-63 1.25971e-63 1.28229e-63 1.30565e-63 1.32639e-63 1.34087e-63 1.34553e-63 1.33727e-63 1.3138e-63 1.274e-63 1.21798e-63 1.14708e-63 1.06364e-63 9.70659e-64 8.71448e-64 7.69314e-64 6.67357e-64 5.68342e-64 4.74642e-64 3.88202e-64 3.10507e-64 2.42538e-64 1.84747e-64 1.37058e-64 9.89162e-65 6.93809e-65 4.7258e-65 3.12393e-65 2.00315e-65 1.24559e-65 7.50932e-66 4.38894e-66 2.48692e-66 1.36633e-66 7.27973e-67 3.76225e-67 1.88659e-67 9.18226e-68 4.33928e-68 1.99183e-68 8.88443e-69 3.85241e-69 1.62462e-69 6.66614e-70 2.66254e-70 1.03565e-70 3.92474e-71 1.44974e-71 5.22199e-72 1.83502e-72 6.29341e-73 2.10745e-73 6.89341e-74 2.20339e-74 6.88496e-75 2.10394e-75 6.29002e-76 1.84042e-76 5.27217e-77 1.47917e-77 4.0659e-78 1.09534e-78 2.89291e-79 7.49301e-80 1.90391e-80 4.74721e-81 1.16187e-81 2.79211e-82 6.58994e-83 1.52799e-83 3.48121e-84 7.78071e-85 1.63771e-85 0 
0 6.61102e-120 5.44206e-119 4.37127e-118 3.47485e-117 2.73398e-116 2.12887e-115 1.6404e-114 1.25071e-113 9.43469e-113 7.04067e-112 5.19722e-111 3.79449e-110 2.73975e-109 1.95612e-108 1.38089e-107 9.63717e-107 6.64837e-106 4.53318e-105 3.05464e-104 2.0339e-103 1.338e-102 8.69528e-102 5.5815e-101 3.53834e-100 2.21497e-99 1.36897e-98 8.35239e-98 5.02986e-97 2.98924e-96 1.7529e-95 1.01409e-94 5.78685e-94 3.25675e-93 1.80729e-92 9.88769e-92 5.33219e-91 2.83387e-90 1.484e-89 7.65568e-89 3.88993e-88 1.94634e-87 9.58785e-87 4.64898e-86 2.21835e-85 1.04145e-84 4.80934e-84 2.18405e-83 9.75135e-83 4.27938e-82 1.84543e-81 7.81811e-81 3.2529e-80 1.32888e-79 5.32864e-79 2.0967e-78 8.09309e-78 3.06346e-77 1.13681e-76 4.13429e-76 1.473e-75 5.13971e-75 1.75572e-74 5.86938e-74 1.91948e-73 6.13853e-73 1.91892e-72 5.86123e-72 1.74854e-71 5.09251e-71 1.44734e-70 4.01231e-70 1.08445e-69 2.85636e-69 7.32828e-69 1.8305e-68 4.44945e-68 1.05197e-67 2.41793e-67 5.40035e-67 1.17145e-66 2.46685e-66 5.04048e-66 9.98874e-66 1.91896e-65 3.57233e-65 6.44162e-65 1.12469e-64 1.90075e-64 3.10842e-64 4.91784e-64 7.52579e-64 1.11384e-63 1.5943e-63 2.2071e-63 2.9556e-63 3.8297e-63 4.8036e-63 5.83597e-63 6.87321e-63 7.85554e-63 8.72514e-63 9.43481e-63 9.95525e-63 1.02794e-62 1.04231e-62 1.04211e-62 1.03211e-62 1.01756e-62 1.00339e-62 9.93594e-63 9.90866e-63 9.96449e-63 1.01024e-62 1.03106e-62 1.05694e-62 1.08556e-62 1.11458e-62 1.14196e-62 1.1662e-62 1.18646e-62 1.20259e-62 1.21499e-62 1.22445e-62 1.23198e-62 1.2386e-62 1.24528e-62 1.25287e-62 1.26211e-62 1.27355e-62 1.28753e-62 1.30407e-62 1.3227e-62 1.34239e-62 1.36157e-62 1.37824e-62 1.39022e-62 1.39551e-62 1.39266e-62 1.38102e-62 1.36088e-62 1.33349e-62 1.30078e-62 1.26513e-62 1.22901e-62 1.19464e-62 1.16376e-62 1.13746e-62 1.11605e-62 1.09909e-62 1.08541e-62 1.0733e-62 1.06072e-62 1.04555e-62 1.02602e-62 1.001e-62 9.7034e-63 9.35025e-63 8.97201e-63 8.5994e-63 8.26827e-63 8.01419e-63 7.86659e-63 7.84381e-63 7.94977e-63 8.173e-63 8.48818e-63 8.85979e-63 9.24718e-63 9.61036e-63 9.91529e-63 1.0138e-62 1.02672e-62 1.03043e-62 1.02624e-62 1.01631e-62 1.00332e-62 9.90028e-63 9.78952e-63 9.72091e-63 9.70732e-63 9.75371e-63 9.85701e-63 1.00066e-62 1.01853e-62 1.03701e-62 1.05342e-62 1.06488e-62 1.06856e-62 1.062e-62 1.0434e-62 1.01185e-62 9.67438e-63 9.1123e-63 8.45068e-63 7.71324e-63 6.92615e-63 6.11562e-63 5.30619e-63 4.51984e-63 3.77542e-63 3.08843e-63 2.47074e-63 1.93021e-63 1.4705e-63 1.09105e-63 7.87507e-64 5.52417e-64 3.76301e-64 2.48765e-64 1.59523e-64 9.91976e-65 5.98055e-65 3.49551e-65 1.9807e-65 1.08822e-65 5.79804e-66 2.99651e-66 1.50261e-66 7.31339e-67 3.45611e-67 1.58644e-67 7.07621e-68 3.06836e-68 1.29398e-68 5.30951e-69 2.12071e-69 8.24904e-70 3.12617e-70 1.15478e-70 4.15968e-71 1.46176e-71 5.01348e-72 1.67892e-72 5.49194e-73 1.75552e-73 5.4858e-74 1.67648e-74 5.01241e-75 1.46671e-75 4.20193e-76 1.179e-76 3.24107e-77 8.73213e-78 2.30648e-78 5.97468e-79 1.51828e-79 3.78609e-80 9.26748e-81 2.22735e-81 5.25763e-82 1.21923e-82 2.77814e-83 6.21014e-84 1.3073e-84 0 
0 5.25549e-119 4.32511e-118 3.47319e-117 2.76022e-116 2.17116e-115 1.69017e-114 1.30203e-113 9.92475e-113 7.48479e-112 5.58416e-111 4.12104e-110 3.00802e-109 2.17136e-108 1.54993e-107 1.09388e-106 7.63234e-106 5.26405e-105 3.58845e-104 2.41748e-103 1.60928e-102 1.05843e-101 6.87685e-101 4.41327e-100 2.79713e-99 1.7506e-98 1.08173e-97 6.59847e-97 3.97281e-96 2.36055e-95 1.38395e-94 8.0048e-94 4.56701e-93 2.56974e-92 1.42577e-91 7.79892e-91 4.20499e-90 2.23439e-89 1.16987e-88 6.03407e-88 3.06545e-87 1.53355e-86 7.55318e-86 3.66182e-85 1.74704e-84 8.20061e-84 3.78641e-83 1.71927e-82 7.67511e-82 3.36777e-81 1.45213e-80 6.15111e-80 2.559e-79 1.04528e-78 4.191e-78 1.6489e-77 6.36395e-77 2.4087e-76 8.93759e-76 3.2501e-75 1.15788e-74 4.03987e-74 1.37992e-73 4.61279e-73 1.50845e-72 4.82378e-72 1.50786e-71 4.60547e-71 1.37387e-70 4.00119e-70 1.13714e-69 3.15233e-69 8.52e-69 2.24408e-68 5.75738e-68 1.43811e-67 3.49567e-67 8.26472e-67 1.89966e-66 4.24286e-66 9.20383e-66 1.93819e-65 3.96035e-65 7.84841e-65 1.50781e-64 2.80701e-64 5.06171e-64 8.83784e-64 1.49364e-63 2.4427e-63 3.86468e-63 5.91424e-63 8.75339e-63 1.25294e-62 1.73455e-62 2.32282e-62 3.00981e-62 3.77525e-62 4.58668e-62 5.40197e-62 6.17416e-62 6.85782e-62 7.41589e-62 7.82533e-62 8.08063e-62 8.19409e-62 8.19313e-62 8.11518e-62 8.00137e-62 7.89041e-62 7.81371e-62 7.79235e-62 7.83612e-62 7.94426e-62 8.10742e-62 8.31032e-62 8.53472e-62 8.76225e-62 8.97694e-62 9.16702e-62 9.32596e-62 9.45252e-62 9.54985e-62 9.62422e-62 9.68341e-62 9.73551e-62 9.78805e-62 9.84773e-62 9.9202e-62 1.00099e-61 1.01196e-61 1.02492e-61 1.03951e-61 1.05493e-61 1.06995e-61 1.083e-61 1.09237e-61 1.09651e-61 1.09426e-61 1.08513e-61 1.06934e-61 1.04787e-61 1.02223e-61 9.94293e-62 9.65983e-62 9.39048e-62 9.14855e-62 8.94246e-62 8.77471e-62 8.64177e-62 8.53455e-62 8.43961e-62 8.34083e-62 8.22177e-62 8.0684e-62 7.87193e-62 7.63113e-62 7.35385e-62 7.05688e-62 6.76434e-62 6.50437e-62 6.30486e-62 6.18894e-62 6.17098e-62 6.25405e-62 6.42918e-62 6.6765e-62 6.96813e-62 7.2722e-62 7.55732e-62 7.79677e-62 7.97178e-62 8.07338e-62 8.10277e-62 8.07015e-62 7.99252e-62 7.89077e-62 7.78659e-62 7.69975e-62 7.64591e-62 7.63517e-62 7.67143e-62 7.75229e-62 7.86947e-62 8.0094e-62 8.15419e-62 8.28277e-62 8.37251e-62 8.40126e-62 8.34972e-62 8.20373e-62 7.95615e-62 7.60767e-62 7.16652e-62 6.64716e-62 6.06814e-62 5.44995e-62 4.81313e-62 4.17696e-62 3.55869e-62 2.97317e-62 2.43263e-62 1.94645e-62 1.52086e-62 1.15881e-62 8.59901e-63 6.20732e-63 4.35468e-63 2.96659e-63 1.96127e-63 1.25775e-63 7.82146e-64 4.71563e-64 2.75624e-64 1.56183e-64 8.5809e-65 4.57191e-65 2.36283e-65 1.18485e-65 5.76676e-66 2.7252e-66 1.25093e-66 5.57966e-67 2.41943e-67 1.02031e-67 4.1866e-68 1.67221e-68 6.50455e-69 2.46508e-69 9.10599e-70 3.28016e-70 1.15272e-70 3.95367e-71 1.32405e-71 4.33131e-72 1.38458e-72 4.32689e-73 1.32239e-73 3.95396e-74 1.15707e-74 3.31508e-75 9.30234e-76 2.55742e-76 6.89083e-77 1.82029e-77 4.71571e-78 1.19847e-78 2.98892e-79 7.31699e-80 1.75877e-80 4.15206e-81 9.62971e-82 2.19451e-82 4.90616e-83 1.03293e-83 0 
0 4.13508e-118 3.40218e-117 2.73133e-116 2.17009e-115 1.70653e-114 1.32814e-113 1.02288e-112 7.79491e-112 5.87709e-111 4.38361e-110 3.23426e-109 2.36017e-108 1.70329e-107 1.21552e-106 8.57667e-106 5.98277e-105 4.12537e-104 2.81157e-103 1.89367e-102 1.2603e-101 8.28715e-101 5.38316e-100 3.45392e-99 2.18862e-98 1.36946e-97 8.46037e-97 5.15969e-96 3.1059e-95 1.84507e-94 1.08152e-93 6.2543e-93 3.56759e-92 2.00701e-91 1.11334e-90 6.0888e-90 3.28234e-89 1.74382e-88 9.12855e-88 4.70762e-87 2.39118e-86 1.19604e-85 5.88989e-85 2.855e-84 1.3619e-83 6.39185e-83 2.95085e-82 1.33968e-81 5.97978e-81 2.62353e-80 1.13108e-79 4.79061e-79 1.99278e-78 8.13906e-78 3.26297e-77 1.28364e-76 4.95378e-76 1.8748e-75 6.95593e-75 2.52928e-74 9.01014e-74 3.14345e-73 1.07366e-72 3.58882e-72 1.17354e-71 3.75262e-71 1.17298e-70 3.58252e-70 1.06868e-69 3.11229e-69 8.84503e-69 2.45194e-68 6.62696e-68 1.74547e-67 4.47816e-67 1.11858e-66 2.71901e-66 6.42859e-66 1.47765e-65 3.30037e-65 7.15951e-65 1.50772e-64 3.08085e-64 6.10565e-64 1.17303e-63 2.18383e-63 3.93809e-63 6.87619e-63 1.16214e-62 1.90062e-62 3.00711e-62 4.60197e-62 6.81129e-62 9.7497e-62 1.34975e-61 1.80754e-61 2.34216e-61 2.93784e-61 3.56933e-61 4.20385e-61 4.80488e-61 5.33708e-61 5.7716e-61 6.09055e-61 6.28961e-61 6.37835e-61 6.37808e-61 6.31789e-61 6.22975e-61 6.14373e-61 6.08424e-61 6.06768e-61 6.10165e-61 6.18558e-61 6.31221e-61 6.4697e-61 6.64388e-61 6.82051e-61 6.98718e-61 7.13477e-61 7.25822e-61 7.35654e-61 7.43221e-61 7.49007e-61 7.53615e-61 7.57673e-61 7.61764e-61 7.66407e-61 7.7204e-61 7.79008e-61 7.87517e-61 7.9757e-61 8.08886e-61 8.20845e-61 8.32489e-61 8.42602e-61 8.49865e-61 8.53065e-61 8.51314e-61 8.4422e-61 8.31968e-61 8.15302e-61 7.95407e-61 7.73728e-61 7.51761e-61 7.30863e-61 7.12093e-61 6.96105e-61 6.83092e-61 6.72777e-61 6.64457e-61 6.57085e-61 6.49409e-61 6.40154e-61 6.2823e-61 6.12953e-61 5.94233e-61 5.72676e-61 5.49591e-61 5.26851e-61 5.06642e-61 4.91133e-61 4.82118e-61 4.80716e-61 4.87165e-61 5.00768e-61 5.19982e-61 5.42643e-61 5.66274e-61 5.88436e-61 6.07054e-61 6.20668e-61 6.28581e-61 6.30885e-61 6.28371e-61 6.22359e-61 6.14468e-61 6.06386e-61 5.99645e-61 5.95461e-61 5.94621e-61 5.97427e-61 6.03694e-61 6.1278e-61 6.23633e-61 6.34863e-61 6.44836e-61 6.51795e-61 6.5402e-61 6.50011e-61 6.38667e-61 6.19432e-61 5.92356e-61 5.58075e-61 5.17709e-61 4.72694e-61 4.2462e-61 3.75081e-61 3.25574e-61 2.77442e-61 2.31841e-61 1.89728e-61 1.51837e-61 1.18657e-61 9.04233e-62 6.71077e-62 4.84479e-62 3.39912e-62 2.3158e-62 1.53111e-62 9.81936e-63 6.10651e-63 3.68176e-63 2.15199e-63 1.21944e-63 6.69977e-64 3.56964e-64 1.84483e-64 9.25086e-65 4.50243e-65 2.12769e-65 9.76644e-66 4.35621e-66 1.8889e-66 7.96575e-67 3.26854e-67 1.30552e-67 5.07819e-68 1.92454e-68 7.1093e-69 2.56095e-69 8.99991e-70 3.08691e-70 1.03381e-70 3.38198e-71 1.08115e-71 3.3788e-72 1.03268e-72 3.08791e-73 9.03685e-74 2.58929e-74 7.26624e-75 1.9978e-75 5.3834e-76 1.42221e-76 3.68476e-77 9.36552e-78 2.33594e-78 5.71907e-79 1.37483e-79 3.24604e-80 7.52933e-81 1.71607e-81 3.83702e-82 8.07934e-83 0 
0 3.21987e-117 2.64851e-116 2.12573e-115 1.68849e-114 1.32746e-113 1.03286e-112 7.95267e-112 6.05887e-111 4.56705e-110 3.40563e-109 2.51208e-108 1.83272e-107 1.32232e-106 9.43428e-106 6.65519e-105 4.64133e-104 3.19965e-103 2.18016e-102 1.46806e-101 9.76826e-101 6.42171e-100 4.17049e-99 2.67527e-98 1.69485e-97 1.06028e-96 6.54888e-96 3.99311e-95 2.40318e-94 1.42733e-93 8.36487e-93 4.83636e-92 2.75824e-91 1.5514e-90 8.60442e-90 4.70486e-89 2.53583e-88 1.34698e-87 7.05e-87 3.63509e-86 1.8461e-85 9.23249e-85 4.54584e-84 2.20317e-83 1.05081e-82 4.93108e-82 2.27615e-81 1.03323e-80 4.61133e-80 2.0229e-79 8.72025e-79 3.69297e-78 1.53602e-77 6.27287e-77 2.51456e-76 9.89128e-76 3.81686e-75 1.4444e-74 5.35865e-74 1.94834e-73 6.94018e-73 2.42114e-72 8.26905e-72 2.76388e-71 9.03744e-71 2.88979e-70 9.03249e-70 2.75863e-69 8.22893e-69 2.39646e-68 6.81058e-68 1.88796e-67 5.10266e-67 1.34399e-66 3.44816e-66 8.61318e-66 2.0937e-65 4.95026e-65 1.13787e-64 2.54155e-64 5.51356e-64 1.16114e-63 2.37274e-63 4.70247e-63 9.03483e-63 1.68208e-62 3.03339e-62 5.29669e-62 8.95223e-62 1.46413e-61 2.31657e-61 3.54529e-61 5.24743e-61 7.51134e-61 1.03989e-60 1.3926e-60 1.80452e-60 2.2635e-60 2.75007e-60 3.23901e-60 3.70217e-60 4.11234e-60 4.44731e-60 4.6933e-60 4.84697e-60 4.91568e-60 4.91584e-60 4.86983e-60 4.80224e-60 4.73622e-60 4.69054e-60 4.67782e-60 4.70392e-60 4.7684e-60 4.86571e-60 4.98672e-60 5.12057e-60 5.25631e-60 5.38441e-60 5.49787e-60 5.59279e-60 5.66842e-60 5.72665e-60 5.77121e-60 5.80673e-60 5.83801e-60 5.86955e-60 5.90531e-60 5.94865e-60 6.00222e-60 6.06761e-60 6.14481e-60 6.23169e-60 6.32349e-60 6.41287e-60 6.49047e-60 6.54618e-60 6.57069e-60 6.55718e-60 6.50263e-60 6.40847e-60 6.28042e-60 6.12758e-60 5.96103e-60 5.79229e-60 5.63178e-60 5.48761e-60 5.36482e-60 5.26488e-60 5.18566e-60 5.12174e-60 5.06507e-60 5.00602e-60 4.9348e-60 4.84301e-60 4.72543e-60 4.58133e-60 4.41543e-60 4.23776e-60 4.06276e-60 3.90723e-60 3.78786e-60 3.71846e-60 3.70762e-60 3.75719e-60 3.8618e-60 4.00959e-60 4.18391e-60 4.36572e-60 4.53627e-60 4.67958e-60 4.78443e-60 4.84545e-60 4.86333e-60 4.84415e-60 4.79805e-60 4.73747e-60 4.67538e-60 4.62358e-60 4.5914e-60 4.58489e-60 4.60638e-60 4.65448e-60 4.72422e-60 4.80756e-60 4.8938e-60 4.97038e-60 5.02381e-60 5.04085e-60 5.00998e-60 4.92272e-60 4.77476e-60 4.56648e-60 4.30276e-60 3.99214e-60 3.64567e-60 3.27554e-60 2.894e-60 2.51257e-60 2.14157e-60 1.78996e-60 1.46511e-60 1.17272e-60 9.16613e-61 6.98611e-61 5.18541e-61 3.74398e-61 2.62703e-61 1.78991e-61 1.18349e-61 7.5903e-62 4.72044e-62 2.84613e-62 1.66358e-62 9.4268e-63 5.17922e-63 2.75947e-63 1.4261e-63 7.15107e-64 3.48039e-64 1.64468e-64 7.54923e-65 3.36719e-65 1.46003e-65 6.15704e-66 2.52635e-66 1.00907e-66 3.92504e-67 1.48751e-67 5.49493e-68 1.97943e-68 6.95637e-69 2.38603e-69 7.99103e-70 2.61423e-70 8.35744e-71 2.61195e-71 7.98341e-72 2.3873e-72 6.98687e-73 2.00204e-73 5.6186e-74 1.54491e-74 4.1633e-75 1.09996e-75 2.85012e-76 7.24477e-77 1.80715e-77 4.4249e-78 1.06383e-78 2.51204e-79 5.82744e-80 1.32833e-80 2.97044e-81 6.25537e-82 0 
0 2.48104e-116 2.04027e-115 1.63713e-114 1.30005e-113 1.02182e-112 7.94852e-112 6.11854e-111 4.66036e-110 3.51201e-109 2.61825e-108 1.93082e-107 1.40831e-106 1.01587e-105 7.24612e-105 5.11041e-104 3.56317e-103 2.45582e-102 1.67295e-101 1.12627e-100 7.49233e-100 4.92441e-99 3.19739e-98 2.05061e-97 1.29884e-96 8.12364e-96 5.01659e-95 3.05818e-94 1.84014e-93 1.09271e-92 6.40255e-92 3.70109e-91 2.11038e-90 1.18679e-89 6.58098e-89 3.59781e-88 1.93881e-87 1.02968e-86 5.38837e-86 2.77788e-85 1.41053e-84 7.05309e-84 3.47223e-83 1.68259e-82 8.02403e-82 3.76488e-81 1.73761e-80 7.88667e-80 3.51939e-79 1.5437e-78 6.65378e-78 2.81753e-77 1.17177e-76 4.78487e-76 1.91789e-75 7.54358e-75 2.91069e-74 1.10139e-73 4.08582e-73 1.48546e-72 5.29103e-72 1.84572e-71 6.30348e-71 2.10681e-70 6.88867e-70 2.20264e-69 6.88452e-69 2.10258e-68 6.27184e-68 1.82649e-67 5.19076e-67 1.43893e-66 3.88909e-66 1.02436e-65 2.62817e-65 6.56505e-65 1.59588e-64 3.77335e-64 8.67376e-64 1.93744e-63 4.20319e-63 8.85215e-63 1.80897e-62 3.58532e-62 6.88876e-62 1.28258e-61 2.31305e-61 4.03906e-61 6.8269e-61 1.11657e-60 1.76672e-60 2.70388e-60 4.00215e-60 5.72893e-60 7.93143e-60 1.06218e-59 1.37639e-59 1.72649e-59 2.09766e-59 2.47064e-59 2.82399e-59 3.13695e-59 3.39259e-59 3.5804e-59 3.69784e-59 3.75051e-59 3.75091e-59 3.71609e-59 3.66478e-59 3.61461e-59 3.57988e-59 3.57021e-59 3.59006e-59 3.63911e-59 3.71312e-59 3.80517e-59 3.90699e-59 4.01026e-59 4.10772e-59 4.19406e-59 4.2663e-59 4.32389e-59 4.36825e-59 4.40222e-59 4.42932e-59 4.4532e-59 4.47727e-59 4.50453e-59 4.53754e-59 4.57831e-59 4.62804e-59 4.68674e-59 4.75277e-59 4.82253e-59 4.89043e-59 4.94938e-59 4.99169e-59 5.01027e-59 4.99995e-59 4.95843e-59 4.8868e-59 4.7894e-59 4.67316e-59 4.54651e-59 4.4182e-59 4.29615e-59 4.18654e-59 4.09318e-59 4.0172e-59 3.95697e-59 3.90836e-59 3.86524e-59 3.82028e-59 3.76602e-59 3.69609e-59 3.60649e-59 3.4967e-59 3.3703e-59 3.23494e-59 3.10162e-59 2.98313e-59 2.89218e-59 2.83929e-59 2.83099e-59 2.86871e-59 2.94834e-59 3.06088e-59 3.19363e-59 3.33211e-59 3.46203e-59 3.57124e-59 3.65118e-59 3.69775e-59 3.71149e-59 3.697e-59 3.662e-59 3.61597e-59 3.56875e-59 3.52933e-59 3.50483e-59 3.49984e-59 3.51614e-59 3.55267e-59 3.60568e-59 3.66902e-59 3.73458e-59 3.7928e-59 3.8334e-59 3.84633e-59 3.82279e-59 3.75634e-59 3.64368e-59 3.48508e-59 3.28423e-59 3.04762e-59 2.78363e-59 2.50152e-59 2.21061e-59 1.91967e-59 1.63658e-59 1.36817e-59 1.1201e-59 8.96731e-60 7.01014e-60 5.34368e-60 3.96684e-60 2.86446e-60 2.01008e-60 1.36966e-60 9.05669e-61 5.80876e-61 3.6126e-61 2.17821e-61 1.27319e-61 7.21461e-62 3.96378e-62 2.11185e-62 1.0914e-62 5.47259e-63 2.66342e-63 1.25859e-63 5.77687e-64 2.5766e-64 1.1172e-64 4.71121e-65 1.93306e-65 7.72085e-66 3.0032e-66 1.13814e-66 4.20432e-67 1.51452e-67 5.32253e-68 1.82564e-68 6.11433e-69 2.00031e-69 6.39498e-70 1.99869e-70 6.10918e-71 1.82692e-71 5.34707e-72 1.53224e-72 4.30041e-73 1.18253e-73 3.18696e-74 8.42072e-75 2.18206e-75 5.5471e-76 1.38381e-76 3.38864e-77 8.14777e-78 1.92414e-78 4.46413e-79 1.01769e-79 2.27605e-80 4.7936e-81 0 
0 1.89159e-115 1.55515e-114 1.24755e-113 9.90434e-113 7.78271e-112 6.05245e-111 4.65785e-110 3.5469e-109 2.67226e-108 1.99173e-107 1.46844e-106 1.0708e-105 7.72225e-105 5.50694e-104 3.88293e-103 2.7067e-102 1.86509e-101 1.27025e-100 8.54968e-100 5.68631e-99 3.73657e-98 2.42561e-97 1.5553e-96 9.84907e-96 6.15888e-95 3.80251e-94 2.3176e-93 1.39425e-92 8.27766e-92 4.84924e-91 2.80264e-90 1.59778e-89 8.9836e-89 4.98071e-88 2.72247e-87 1.46685e-86 7.78899e-86 4.07534e-85 2.10063e-84 1.06648e-83 5.33192e-83 2.62452e-82 1.27162e-81 6.06332e-81 2.84453e-80 1.31267e-79 5.95723e-79 2.65807e-78 1.16577e-77 5.02424e-77 2.12728e-76 8.8462e-76 3.61197e-75 1.44764e-74 5.69347e-74 2.19666e-73 8.31149e-73 3.0831e-72 1.12084e-71 3.99208e-71 1.39253e-70 4.75555e-70 1.58939e-69 5.1967e-69 1.66159e-68 5.19336e-68 1.58607e-67 4.7311e-67 1.3778e-66 3.91562e-66 1.08546e-65 2.9338e-65 7.72761e-65 1.98269e-64 4.95283e-64 1.20401e-63 2.84692e-63 6.54445e-63 1.46189e-62 3.17165e-62 6.67999e-62 1.36515e-61 2.70582e-61 5.19917e-61 9.68055e-61 1.74591e-60 3.04886e-60 5.15347e-60 8.42911e-60 1.33376e-59 2.04132e-59 3.02156e-59 4.32536e-59 5.9884e-59 8.01985e-59 1.03924e-58 1.3036e-58 1.58388e-58 1.86554e-58 2.13239e-58 2.36877e-58 2.5619e-58 2.70384e-58 2.79268e-58 2.83264e-58 2.83315e-58 2.80706e-58 2.7685e-58 2.73076e-58 2.70463e-58 2.69735e-58 2.71229e-58 2.74921e-58 2.80493e-58 2.87424e-58 2.95091e-58 3.02868e-58 3.10208e-58 3.16711e-58 3.22154e-58 3.26494e-58 3.29839e-58 3.32402e-58 3.34449e-58 3.36253e-58 3.38071e-58 3.40128e-58 3.42617e-58 3.45688e-58 3.49432e-58 3.53849e-58 3.58817e-58 3.64064e-58 3.6917e-58 3.73603e-58 3.76783e-58 3.78177e-58 3.77397e-58 3.74269e-58 3.68875e-58 3.61542e-58 3.52792e-58 3.43259e-58 3.33601e-58 3.24415e-58 3.16165e-58 3.0914e-58 3.03423e-58 2.9889e-58 2.95231e-58 2.91984e-58 2.88595e-58 2.84504e-58 2.79229e-58 2.72472e-58 2.64192e-58 2.54659e-58 2.44451e-58 2.34397e-58 2.25462e-58 2.18603e-58 2.14612e-58 2.13984e-58 2.16825e-58 2.22826e-58 2.31308e-58 2.41315e-58 2.51755e-58 2.61552e-58 2.69789e-58 2.75822e-58 2.79341e-58 2.80385e-58 2.79302e-58 2.76672e-58 2.73209e-58 2.69655e-58 2.66686e-58 2.64839e-58 2.6446e-58 2.65684e-58 2.68431e-58 2.72418e-58 2.77184e-58 2.82117e-58 2.86498e-58 2.89553e-58 2.90524e-58 2.88748e-58 2.83739e-58 2.75248e-58 2.63293e-58 2.48152e-58 2.3031e-58 2.10399e-58 1.89115e-58 1.67158e-58 1.45191e-58 1.23808e-58 1.03525e-58 8.4772e-59 6.78799e-59 5.30738e-59 4.04632e-59 3.00415e-59 2.16954e-59 1.52258e-59 1.03755e-59 6.86104e-60 4.4007e-60 2.73697e-60 1.65027e-60 9.64605e-61 5.46597e-61 3.00302e-61 1.59994e-61 8.26822e-62 4.14582e-62 2.01764e-62 9.53398e-63 4.37592e-63 1.95168e-63 8.46212e-64 3.56836e-64 1.4641e-64 5.84763e-65 2.27452e-65 8.61976e-66 3.18412e-66 1.147e-66 4.03095e-67 1.38263e-67 4.63065e-68 1.51494e-68 4.84334e-69 1.51377e-69 4.62713e-70 1.38377e-70 4.0502e-71 1.16067e-71 3.25771e-72 8.95856e-73 2.41452e-73 6.38019e-74 1.65342e-74 4.20355e-75 1.04873e-75 2.56833e-76 6.17598e-77 1.45864e-77 3.38448e-78 7.71647e-79 1.72597e-79 3.63548e-80 0 
0 1.42684e-114 1.17277e-113 9.40558e-113 7.46526e-112 5.86464e-111 4.55968e-110 3.50817e-109 2.67078e-108 2.0117e-107 1.49902e-106 1.10492e-105 8.05528e-105 5.80782e-104 4.14075e-103 2.91896e-102 2.03427e-101 1.40143e-100 9.54251e-100 6.42138e-99 4.26986e-98 2.80519e-97 1.82061e-96 1.16713e-95 7.38943e-95 4.61985e-94 2.85174e-93 1.73777e-92 1.04522e-91 6.20429e-91 3.63392e-90 2.09985e-89 1.19691e-88 6.72846e-88 3.72975e-87 2.03834e-86 1.09807e-85 5.82977e-85 3.04976e-84 1.57175e-83 7.9785e-83 3.9883e-82 1.96287e-81 9.50911e-81 4.53352e-80 2.12657e-79 9.81232e-79 4.45254e-78 1.98646e-77 8.71122e-77 3.75398e-76 1.58929e-75 6.60839e-75 2.69802e-74 1.08125e-73 4.25216e-73 1.64046e-72 6.20659e-72 2.30216e-71 8.36893e-71 2.98062e-70 1.03967e-69 3.55039e-69 1.18657e-68 3.87955e-68 1.24043e-67 3.87696e-67 1.18403e-66 3.53187e-66 1.02856e-65 2.92316e-65 8.10356e-65 2.19029e-64 5.76939e-64 1.48032e-63 3.69804e-63 8.99015e-63 2.12585e-62 4.88711e-62 1.09173e-61 2.36871e-61 4.98916e-61 1.01967e-60 2.02116e-60 3.88385e-60 7.23191e-60 1.30437e-59 2.27792e-59 3.85054e-59 6.29832e-59 9.96645e-59 1.52542e-58 2.258e-58 3.23242e-58 4.47535e-58 5.99365e-58 7.76689e-58 9.7428e-58 1.18377e-57 1.3943e-57 1.59378e-57 1.7705e-57 1.91492e-57 2.0211e-57 2.08762e-57 2.11763e-57 2.11816e-57 2.09881e-57 2.07013e-57 2.04203e-57 2.02256e-57 2.01713e-57 2.02826e-57 2.05577e-57 2.0973e-57 2.14895e-57 2.20609e-57 2.26404e-57 2.31876e-57 2.36724e-57 2.40782e-57 2.4402e-57 2.46516e-57 2.48431e-57 2.4996e-57 2.51309e-57 2.52668e-57 2.54205e-57 2.56062e-57 2.58351e-57 2.61141e-57 2.64431e-57 2.6813e-57 2.72036e-57 2.75837e-57 2.79136e-57 2.81501e-57 2.82537e-57 2.81953e-57 2.79621e-57 2.75601e-57 2.70137e-57 2.63617e-57 2.56515e-57 2.4932e-57 2.42477e-57 2.36333e-57 2.311e-57 2.26842e-57 2.23466e-57 2.2074e-57 2.1832e-57 2.15793e-57 2.12739e-57 2.08802e-57 2.03758e-57 1.97577e-57 1.90461e-57 1.82842e-57 1.75338e-57 1.68669e-57 1.63549e-57 1.60569e-57 1.60098e-57 1.62216e-57 1.66692e-57 1.73019e-57 1.80486e-57 1.88276e-57 1.95588e-57 2.01738e-57 2.06244e-57 2.08875e-57 2.09661e-57 2.08859e-57 2.06903e-57 2.04325e-57 2.01677e-57 1.99464e-57 1.98086e-57 1.97801e-57 1.9871e-57 2.00754e-57 2.03723e-57 2.07272e-57 2.10946e-57 2.14209e-57 2.16484e-57 2.17206e-57 2.15879e-57 2.12143e-57 2.05808e-57 1.9689e-57 1.85592e-57 1.72276e-57 1.57412e-57 1.41517e-57 1.25115e-57 1.08698e-57 9.27107e-58 7.75398e-58 6.3507e-58 5.08622e-58 3.9775e-58 3.0329e-58 2.25204e-58 1.62657e-58 1.14162e-58 7.78007e-59 5.14502e-59 3.30016e-59 2.05255e-59 1.23761e-59 7.23398e-60 4.09911e-60 2.25202e-60 1.1998e-60 6.20016e-61 3.10875e-61 1.51288e-61 7.14852e-62 3.28091e-62 1.46324e-62 6.3441e-63 2.67512e-63 1.09757e-63 4.38354e-64 1.70499e-64 6.46127e-65 2.38673e-65 8.59747e-66 3.02141e-66 1.03635e-66 3.47089e-67 1.13553e-67 3.63037e-68 1.13468e-68 3.46843e-69 1.03728e-69 3.03616e-70 8.70108e-71 2.44229e-71 6.71652e-72 1.81035e-72 4.784e-73 1.23985e-73 3.15235e-74 7.86529e-75 1.92637e-75 4.63268e-76 1.09425e-76 2.53924e-77 5.78995e-78 1.2952e-78 2.72841e-79 0 