# vtk DataFile Version 3.0
Gray-Scott Simulation Output
ASCII
DATASET STRUCTURED_POINTS
DIMENSIONS 256 256 1
SPACING 1.0 1.0 1.0
ORIGIN 0 0 0
POINT_DATA 65536
SCALARS u double
LOOKUP_TABLE default
0 0 0 0 0 0 0 0 0 0 0 0 0 0 0 0 0 0 0 0 0 0 0 0 0 0 0 0 0 0 0 0 0 0 0 0 0 0 0 0 0 0 0 0 0 0 0 0 0 0 0 0 0 0 0 0 0 0 0 0 0 0 0 0 0 0 0 0 0 0 0 0 0 0 0 0 0 0 0 0 0 0 0 0 0 0 0 0 0 0 0 0 0 0 0 0 0 0 0 0 0 0 0 0 0 0 0 0 0 0 0 0 0 0 0 0 0 0 0 0 0 0 0 0 0 0 0 0 0 0 0 0 0 0 0 0 0 0 0 0 0 0 0 0 0 0 0 0 0 0 0 0 0 0 0 0 0 0 0 0 0 0 0 0 0 0 0 0 0 0 0 0 0 0 0 0 0 0 0 0 0 0 0 0 0 0 0 0 0 0 0 0 0 0 0 0 0 0 0 0 0 0 0 0 0 0 0 0 0 0 0 0 0 0 0 0 0 0 0 0 0 0 0 0 0 0 0 0 0 0 0 0 0 0 0 0 0 0 0 0 0 0 0 0 0 0 0 0 0 0 0 0 0 0 0 0 
0 0 0 0 0 0 0 0 0 0 0 0 0 0 0 0 0 0 0 0 0 0 0 0 0 0 0 0 0 0 0 0 0 0 0 0 0 0 0 0 0 0 0 0 0 0 0 0 0 0 0 0 0 0 0 0 0 0 0 0 0 0 0 0 0 0 0 0 0 0 0 0 0 0 0 0 0 0 0 0 0 0 0 0 0 0 0 0 0 0 0 0 0 0 0 0 0 0 4.16824e-237 1.94311e-234 2.26877e-232 9.83536e-233 1.96316e-232 1.27537e-232 2.28642e-232 1.77207e-232 3.60676e-233 6.42597e-233 9.62016e-233 1.0786e-232 1.90931e-233 1.36243e-232 4.94731e-234 1.56665e-232 1.32793e-232 3.11893e-233 1.08069e-232 1.09518e-232 2.01039e-232 9.83743e-233 2.25778e-232 1.57484e-232 7.39159e-234 1.38574e-232 5.51361e-234 2.20279e-232 1.75231e-232 9.69602e-233 8.65221e-233 8.03743e-233 2.22792e-232 1.09572e-232 9.15201e-233 8.49003e-233 1.78745e-232 7.59395e-233 1.82023e-232 1.829e-232 1.78384e-232 2.19298e-232 1.72792e-232 9.62619e-233 7.39281e-234 2.0013e-232 9.33541e-233 2.04937e-232 2.69953e-234 1.10561e-232 1.44741e-232 5.24218e-233 2.19484e-233 2.4171e-232 1.04211e-232 1.3895e-233 1.00784e-232 1.25981e-232 1.44033e-232 2.39922e-232 5.85044e-233 6.88132e-233 3.7517e-233 5.91582e-233 6.38845e-233 2.78096e-233 6.35398e-233 1.8898e-233 1.58487e-232 4.76741e-233 2.18193e-233 2.32053e-232 1.15504e-232 2.05484e-232 4.3611e-233 6.77482e-233 2.1005e-232 5.64922e-233 1.46624e-232 4.56073e-233 7.42313e-233 1.15426e-232 7.22177e-233 9.33864e-233 5.56689e-233 1.68329e-232 2.52394e-233 2.26898e-232 7.73534e-233 1.31586e-233 4.32062e-233 2.11309e-232 2.2701e-232 1.87301e-232 7.95575e-233 2.85986e-233 1.41393e-232 2.85125e-233 6.9195e-233 1.10163e-232 3.02104e-233 1.54038e-233 6.5715e-233 5.63717e-235 1.21013e-237 0 0 0 0 0 0 0 0 0 0 0 0 0 0 0 0 0 0 0 0 0 0 0 0 0 0 0 0 0 0 0 0 0 0 0 0 0 0 0 0 0 0 0 0 0 0 0 0 0 0 0 0 0 
0 0 0 0 0 0 0 0 0 0 0 0 0 0 0 0 0 0 0 0 0 0 0 0 0 0 0 0 0 0 0 0 0 0 0 0 0 0 0 0 0 0 0 0 0 0 0 0 0 0 0 0 0 0 0 0 0 0 0 0 0 0 0 0 0 0 0 0 0 0 0 0 0 0 0 0 0 0 0 0 0 0 0 0 0 0 0 0 0 0 0 0 0 0 0 0 0 1.37552e-235 9.61553e-233 2.24199e-230 1.74688e-228 7.69587e-229 1.51603e-228 9.93968e-229 1.76723e-228 1.37041e-228 2.85092e-229 4.98002e-229 7.4476e-229 8.32495e-229 1.54741e-229 1.04763e-228 4.77195e-230 1.20831e-228 1.0265e-228 2.47519e-229 8.34926e-229 8.5159e-229 1.55178e-228 7.69855e-229 1.74355e-228 1.21777e-228 6.65733e-230 1.06519e-228 5.42572e-230 1.69884e-228 1.35695e-228 7.53558e-229 6.70609e-229 6.27718e-229 1.71846e-228 8.52216e-229 7.09546e-229 6.61206e-229 1.37881e-228 5.95283e-229 1.40728e-228 1.41739e-228 1.38402e-228 1.69688e-228 1.33819e-228 7.45537e-229 6.65967e-230 1.54129e-228 7.30608e-229 1.57804e-228 3.11653e-230 8.54303e-229 1.11752e-228 4.08251e-229 1.78354e-229 1.86181e-228 8.09099e-229 1.13555e-229 7.78955e-229 9.76016e-229 1.11873e-228 1.85056e-228 4.59655e-229 5.3182e-229 2.92417e-229 4.57833e-229 4.93639e-229 2.17862e-229 4.89694e-229 1.52486e-229 1.21996e-228 3.72177e-229 1.76868e-229 1.78788e-228 9.01902e-229 1.58433e-228 3.44033e-229 5.28876e-229 1.61827e-228 4.45782e-229 1.12995e-228 3.57672e-229 5.75581e-229 8.91682e-229 5.61689e-229 7.21696e-229 4.36286e-229 1.29611e-228 2.06923e-229 1.74712e-228 6.02205e-229 1.05081e-229 3.39365e-229 1.63279e-228 1.75774e-228 1.44943e-228 6.18335e-229 2.26985e-229 1.0883e-228 2.25976e-229 5.36194e-229 8.49672e-229 2.36211e-229 1.21556e-229 5.05391e-229 6.49945e-231 2.78996e-233 3.99344e-236 0 0 0 0 0 0 0 0 0 0 0 0 0 0 0 0 0 0 0 0 0 0 0 0 0 0 0 0 0 0 0 0 0 0 0 0 0 0 0 0 0 0 0 0 0 0 0 0 0 0 0 0 
0 0 0 0 0 0 0 0 0 0 0 0 0 0 0 0 0 0 0 0 0 0 0 0 0 0 0 0 0 0 0 0 0 0 0 0 0 0 0 0 0 0 0 0 0 0 0 0 0 0 0 0 0 0 0 0 0 0 0 0 0 0 0 0 0 0 0 0 0 0 0 0 0 0 0 0 0 0 0 0 0 0 0 0 0 0 0 0 0 0 0 0 0 0 0 0 3.37002e-234 3.1406e-231 1.09791e-228 1.7072e-226 9.98654e-225 4.46958e-225 8.69247e-225 5.75059e-225 1.01414e-224 7.8684e-225 1.67207e-225 2.86547e-225 4.28055e-225 4.77066e-225 9.28679e-226 5.9812e-225 3.27724e-226 6.91929e-225 5.89123e-225 1.45714e-225 4.78936e-225 4.9158e-225 8.89319e-225 4.47184e-225 9.99666e-225 6.99137e-225 4.35758e-226 6.07947e-225 3.77535e-226 9.7277e-225 7.80133e-225 4.34789e-225 3.8591e-225 3.63907e-225 9.84131e-225 4.92065e-225 4.08427e-225 3.82274e-225 7.89688e-225 3.46344e-225 8.0781e-225 8.15487e-225 7.97217e-225 9.74837e-225 7.69431e-225 4.28709e-225 4.36008e-226 8.81338e-225 4.2439e-225 9.02188e-225 2.37448e-226 4.90115e-225 6.40596e-225 2.36042e-225 1.07308e-225 1.06475e-224 4.66363e-225 6.86842e-226 4.47e-225 5.61394e-225 6.45086e-225 1.05977e-224 2.68017e-225 3.05173e-225 1.69193e-225 2.63063e-225 2.83199e-225 1.26676e-225 2.80219e-225 9.11481e-226 6.97222e-225 2.15684e-225 1.0618e-225 1.02275e-224 5.22746e-225 9.06973e-225 2.0139e-225 3.06481e-225 9.25671e-225 2.61002e-225 6.46541e-225 2.08188e-225 3.31347e-225 5.11426e-225 3.24315e-225 4.141e-225 2.53773e-225 7.40985e-225 1.25469e-225 9.98831e-225 3.48029e-225 6.22495e-226 1.97838e-225 9.3672e-225 1.01046e-224 8.32754e-225 3.56795e-225 1.33638e-225 6.21934e-225 1.32859e-225 3.08481e-225 4.86557e-225 1.37094e-225 7.11789e-226 2.88579e-225 4.94542e-227 3.1837e-229 9.11315e-232 9.78393e-235 0 0 0 0 0 0 0 0 0 0 0 0 0 0 0 0 0 0 0 0 0 0 0 0 0 0 0 0 0 0 0 0 0 0 0 0 0 0 0 0 0 0 0 0 0 0 0 0 0 0 0 
0 0 0 0 0 0 0 0 0 0 0 0 0 0 0 0 0 0 0 0 0 0 0 0 0 0 0 0 0 0 0 0 0 0 0 0 0 0 0 0 0 0 0 0 0 0 0 0 0 0 0 0 0 0 0 0 0 0 0 0 0 0 0 0 0 0 0 0 0 0 0 0 0 0 0 0 0 0 0 0 0 0 0 0 0 0 0 0 0 0 0 0 0 0 0 6.53784e-233 7.61528e-230 3.54883e-227 8.27228e-225 9.65068e-223 4.52093e-221 2.05497e-221 3.94676e-221 2.63416e-221 4.60841e-221 3.57741e-221 7.76099e-222 1.30562e-221 1.94813e-221 2.16489e-221 4.40302e-222 2.70421e-221 1.73172e-222 3.13763e-221 2.67731e-221 6.78723e-222 2.17556e-221 2.24679e-221 4.03594e-221 2.05637e-221 4.53869e-221 3.17841e-221 2.2222e-222 2.74778e-221 2.01346e-222 4.4109e-221 3.55147e-221 1.98639e-221 1.75857e-221 1.67025e-221 4.46297e-221 2.24957e-221 1.86167e-221 1.74988e-221 3.58151e-221 1.59517e-221 3.67191e-221 3.71522e-221 3.63616e-221 4.43464e-221 3.50315e-221 1.95218e-221 2.22402e-222 3.99086e-221 1.95148e-221 4.08454e-221 1.34303e-222 2.2266e-221 2.90776e-221 1.08063e-221 5.09976e-222 4.82192e-221 2.12847e-221 3.28042e-222 2.03124e-221 2.55694e-221 2.94528e-221 4.8059e-221 1.23699e-221 1.38676e-221 7.75091e-222 1.19689e-221 1.28655e-221 5.8308e-222 1.26984e-221 4.30564e-222 3.15541e-221 9.89632e-222 5.03623e-222 4.63298e-221 2.39869e-221 4.11155e-221 9.33049e-222 1.40615e-221 4.19298e-221 1.20934e-221 2.92953e-221 9.59255e-222 1.51043e-221 2.32278e-221 1.48267e-221 1.88156e-221 1.16849e-221 3.35465e-221 6.00388e-222 4.52192e-221 1.59249e-221 2.91769e-222 9.12985e-222 4.25541e-221 4.59956e-221 3.78862e-221 1.63022e-221 6.22515e-222 2.81452e-221 6.18047e-222 1.40532e-221 2.20631e-221 6.29932e-222 3.2987e-222 1.30485e-221 2.7935e-223 2.39734e-225 1.02923e-227 2.20984e-230 1.89808e-233 0 0 0 0 0 0 0 0 0 0 0 0 0 0 0 0 0 0 0 0 0 0 0 0 0 0 0 0 0 0 0 0 0 0 0 0 0 0 0 0 0 0 0 0 0 0 0 0 0 0 
0 0 0 0 0 0 0 0 0 0 0 0 0 0 0 0 0 0 0 0 0 0 0 0 0 0 0 0 0 0 0 0 0 0 0 0 0 0 0 0 0 0 0 0 0 0 0 0 0 0 0 0 0 0 0 0 0 0 0 0 0 0 0 0 0 0 0 0 0 0 0 0 0 0 0 0 0 0 0 0 0 0 0 0 0 0 0 0 0 0 0 0 0 0 1.04605e-231 1.46205e-228 8.51564e-226 2.64591e-223 4.62655e-221 4.31952e-219 1.68805e-217 7.7904e-218 1.47803e-217 9.9505e-218 1.72719e-217 1.34147e-217 2.96942e-218 4.90653e-218 7.31225e-218 8.10281e-218 1.71804e-218 1.00843e-217 7.39031e-219 1.1735e-217 1.00351e-217 2.60543e-218 8.15105e-218 8.46871e-218 1.51069e-217 7.79724e-218 1.69958e-217 1.19177e-217 9.22797e-219 1.02438e-217 8.65213e-219 1.64963e-217 1.33341e-217 7.48438e-218 6.60955e-218 6.32154e-218 1.6693e-217 8.48135e-218 6.99881e-218 6.60571e-218 1.33974e-217 6.05773e-218 1.37662e-217 1.39596e-217 1.36781e-217 1.66385e-217 1.31543e-217 7.33195e-218 9.23795e-219 1.49052e-217 7.3989e-218 1.52524e-217 6.01456e-219 8.34314e-218 1.08858e-217 4.08019e-218 1.99444e-218 1.80107e-217 8.01147e-218 1.28893e-218 7.61303e-218 9.60496e-218 1.10901e-217 1.79754e-217 4.70694e-218 5.19768e-218 2.92818e-218 4.49135e-218 4.82054e-218 2.21292e-218 4.74634e-218 1.67439e-218 1.17783e-217 3.74456e-218 1.9661e-218 1.731e-217 9.07608e-218 1.53731e-217 3.56361e-218 5.32017e-218 1.56651e-217 4.61883e-218 1.09484e-217 3.64426e-218 5.6786e-218 8.70093e-218 5.58994e-218 7.05144e-218 4.43608e-218 1.25267e-217 2.36232e-218 1.68849e-217 6.00915e-218 1.12704e-218 3.47388e-218 1.59443e-217 1.72677e-217 1.42159e-217 6.14317e-218 2.38979e-218 1.05053e-217 2.36951e-218 5.28019e-218 8.25154e-218 2.38679e-218 1.26022e-218 4.86627e-218 1.24938e-219 1.33997e-221 7.66959e-224 2.46992e-226 4.24276e-229 3.03693e-232 0 0 0 0 0 0 0 0 0 0 0 0 0 0 0 0 0 0 0 0 0 0 0 0 0 0 0 0 0 0 0 0 0 0 0 0 0 0 0 0 0 0 0 0 0 0 0 0 0 
0 0 0 0 0 0 0 0 0 0 0 0 0 0 0 0 0 0 0 0 0 0 0 0 0 0 0 0 0 0 0 0 0 0 0 0 0 0 0 0 0 0 0 0 0 0 0 0 0 0 0 0 0 0 0 0 0 0 0 0 0 0 0 0 0 0 0 0 0 0 0 0 0 0 0 0 0 0 0 0 0 0 0 0 0 0 0 0 0 0 0 0 0 1.41965e-230 2.31481e-227 1.61778e-224 6.2823e-222 1.46416e-219 2.04853e-217 1.59441e-215 5.34659e-214 2.5045e-214 4.69527e-214 3.18794e-214 5.49095e-214 4.2669e-214 9.63195e-215 1.56407e-214 2.32803e-214 2.57256e-214 5.67526e-215 3.19003e-214 2.63282e-215 3.72299e-214 3.1905e-214 8.47754e-215 2.59054e-214 2.70737e-214 4.79661e-214 2.50723e-214 5.39853e-214 3.79049e-214 3.21717e-215 3.23956e-214 3.09887e-215 5.23332e-214 4.24645e-214 2.39189e-214 2.10723e-214 2.0291e-214 5.29628e-214 2.71211e-214 2.23187e-214 2.11494e-214 4.25116e-214 1.95078e-214 4.37784e-214 4.44909e-214 4.36425e-214 5.29523e-214 4.18976e-214 2.33589e-214 3.22154e-215 4.72225e-214 2.37886e-214 4.83138e-214 2.22131e-215 2.65183e-214 3.45686e-214 1.30671e-214 6.60269e-215 5.7065e-214 2.5577e-214 4.28594e-215 2.42038e-214 3.06043e-214 3.54183e-214 5.7031e-214 1.51869e-214 1.65257e-214 9.38221e-215 1.42959e-214 1.5321e-214 7.12196e-215 1.50493e-214 5.51387e-215 3.72937e-214 1.20168e-214 6.49838e-215 5.48616e-214 2.9124e-214 4.87587e-214 1.15397e-214 1.70715e-214 4.96447e-214 1.49553e-214 3.47087e-214 1.17401e-214 1.81089e-214 2.76468e-214 1.7875e-214 2.24166e-214 1.4281e-214 3.96792e-214 7.86279e-215 5.34816e-214 1.92315e-214 3.69005e-215 1.12087e-214 5.06749e-214 5.49871e-214 4.52461e-214 1.96356e-214 7.77619e-215 3.32619e-214 7.70023e-215 1.68281e-214 2.61773e-214 7.66953e-215 4.08184e-215 1.53943e-214 4.60814e-216 5.92944e-218 4.24182e-220 1.82126e-222 4.69255e-225 6.71755e-228 4.12155e-231 0 0 0 0 0 0 0 0 0 0 0 0 0 0 0 0 0 0 0 0 0 0 0 0 0 0 0 0 0 0 0 0 0 0 0 0 0 0 0 0 0 0 0 0 0 0 0 0 
0 0 0 0 0 0 0 0 0 0 0 0 0 0 0 0 0 0 0 0 0 0 0 0 0 0 0 0 0 0 0 0 0 0 0 0 0 0 0 0 0 0 0 0 0 0 0 0 0 0 0 0 0 0 0 0 0 0 0 0 0 0 0 0 0 0 0 0 0 0 0 0 0 0 0 0 0 0 0 0 0 0 0 0 0 0 0 0 0 0 0 0 1.66808e-229 3.10836e-226 2.5343e-223 1.18086e-220 3.4395e-218 6.41368e-216 7.47935e-214 4.99158e-212 1.46624e-210 6.96949e-211 1.29145e-210 8.84187e-211 1.51141e-210 1.17508e-210 2.70372e-211 4.31689e-211 6.4171e-211 7.07182e-211 1.62025e-211 8.73756e-211 8.01928e-212 1.02267e-210 8.78254e-211 2.38663e-211 7.12864e-211 7.49313e-211 1.31865e-210 6.97866e-211 1.48471e-210 1.04382e-210 9.629e-212 8.87087e-211 9.47927e-212 1.43749e-210 1.17085e-210 6.618e-211 5.8168e-211 5.63809e-211 1.45493e-210 7.50818e-211 6.16231e-211 5.8621e-211 1.16797e-210 5.43767e-211 1.20542e-210 1.22768e-210 1.20561e-210 1.45908e-210 1.15538e-210 6.4435e-211 9.64483e-212 1.29539e-210 6.62029e-211 1.3251e-210 6.95799e-212 7.29789e-211 9.50443e-211 3.62315e-211 1.88899e-211 1.56546e-210 7.06942e-211 1.23133e-211 6.6626e-211 8.44282e-211 9.79299e-211 1.56667e-210 4.24104e-211 4.54946e-211 2.60246e-211 3.93973e-211 4.21604e-211 1.984e-211 4.1317e-211 1.56964e-211 1.02241e-210 3.33843e-211 1.85644e-211 1.50549e-210 8.08989e-211 1.339e-210 3.23391e-211 4.7422e-211 1.36223e-210 4.19038e-211 9.52731e-211 3.27367e-211 4.99989e-211 7.60593e-211 4.94846e-211 6.17021e-211 3.97936e-211 1.08827e-210 2.26032e-211 1.46673e-210 5.32826e-211 1.04531e-211 3.13039e-211 1.39447e-210 1.51601e-210 1.24684e-210 5.43382e-211 2.18924e-211 9.11851e-211 2.16512e-211 4.64343e-211 7.19021e-211 2.13337e-211 1.14417e-211 4.21657e-211 1.44154e-212 2.16353e-214 1.8571e-216 9.9663e-219 3.42364e-221 7.35134e-224 9.02057e-227 4.84282e-230 0 0 0 0 0 0 0 0 0 0 0 0 0 0 0 0 0 0 0 0 0 0 0 0 0 0 0 0 0 0 0 0 0 0 0 0 0 0 0 0 0 0 0 0 0 0 0 
0 0 0 0 0 0 0 0 0 0 0 0 0 0 0 0 0 0 0 0 0 0 0 0 0 0 0 0 0 0 0 0 0 0 0 0 0 0 0 0 0 0 0 0 0 0 0 0 0 0 0 0 0 0 0 0 0 0 0 0 0 0 0 0 0 0 0 0 0 0 0 0 0 0 0 0 0 0 0 0 0 0 0 0 0 0 0 0 0 0 0 1.72369e-228 3.61337e-225 3.36678e-222 1.83009e-219 6.39588e-217 1.49048e-214 2.31638e-212 2.31583e-210 1.35287e-208 3.53643e-207 1.70526e-207 3.12409e-207 2.15646e-207 3.65879e-207 2.84602e-207 6.67137e-208 1.04787e-207 1.55557e-207 1.70971e-207 4.06141e-208 2.10486e-207 2.12641e-208 2.4706e-207 2.12615e-207 5.90515e-208 1.72526e-207 1.8237e-207 3.18827e-207 1.70792e-207 3.59109e-207 2.52799e-207 2.51661e-208 2.13645e-207 2.52237e-208 3.47264e-207 2.83908e-207 1.61029e-207 1.41215e-207 1.37753e-207 3.5151e-207 1.82784e-207 1.49636e-207 1.42881e-207 2.82217e-207 1.33265e-207 2.91903e-207 2.97923e-207 2.92887e-207 3.5358e-207 2.80199e-207 1.56322e-207 2.52149e-208 3.12528e-207 1.6199e-207 3.19637e-207 1.88685e-208 1.76634e-207 2.29818e-207 8.8346e-208 4.74466e-208 3.77694e-207 1.71834e-207 3.10517e-208 1.61299e-207 2.04833e-207 2.38115e-207 3.78502e-207 1.04122e-207 1.10153e-207 6.34783e-208 9.54843e-208 1.02033e-207 4.85941e-208 9.97662e-208 3.92401e-208 2.46513e-207 8.15561e-208 4.6567e-208 3.63345e-207 1.9759e-207 3.23401e-207 7.96698e-208 1.15835e-207 3.28744e-207 1.03207e-207 2.30004e-207 8.02586e-208 1.21405e-207 1.84025e-207 1.20467e-207 1.49369e-207 9.74901e-208 2.6251e-207 5.70173e-208 3.53772e-207 1.29814e-207 2.60245e-208 7.68664e-208 3.37475e-207 3.67576e-207 3.02172e-207 1.32242e-207 5.41681e-208 2.19852e-207 5.35052e-208 1.12681e-207 1.73691e-207 5.21794e-208 2.81933e-208 1.01574e-207 3.90393e-209 6.6947e-211 6.70344e-213 4.31665e-215 1.85349e-217 5.30629e-220 9.76646e-223 1.04863e-225 5.00425e-229 0 0 0 0 0 0 0 0 0 0 0 0 0 0 0 0 0 0 0 0 0 0 0 0 0 0 0 0 0 0 0 0 0 0 0 0 0 0 0 0 0 0 0 0 0 0 
0 0 0 0 0 0 0 0 0 0 0 0 0 0 0 0 0 0 0 0 0 0 0 0 0 0 0 0 0 0 0 0 0 0 0 0 0 0 0 0 0 0 0 0 0 0 0 0 0 0 0 0 0 0 0 0 0 0 0 0 0 0 0 0 0 0 0 0 0 0 0 0 0 0 0 0 0 0 0 0 0 0 0 0 0 0 0 0 0 0 1.58579e-227 3.6936e-224 3.8716e-221 2.40502e-218 9.80528e-216 2.74162e-213 5.32463e-211 7.09384e-209 6.20687e-207 3.22433e-205 7.5945e-204 3.714e-204 6.72892e-204 4.68215e-204 7.88595e-204 6.13717e-204 1.46496e-204 2.26468e-204 3.35728e-204 3.68033e-204 9.05044e-205 4.51483e-204 4.97823e-205 5.31424e-204 4.58276e-204 1.30007e-204 3.71775e-204 3.95151e-204 6.86359e-204 3.72074e-204 7.73351e-204 5.45113e-204 5.82083e-205 4.58152e-204 5.92258e-205 7.4694e-204 6.12918e-204 3.48833e-204 3.05241e-204 2.99612e-204 7.5614e-204 3.96151e-204 3.23514e-204 3.10033e-204 6.07167e-204 2.90717e-204 6.29371e-204 6.43688e-204 6.33493e-204 7.62878e-204 6.05007e-204 3.37668e-204 5.83387e-205 6.71359e-204 3.52817e-204 6.86509e-204 4.49941e-205 3.80647e-204 4.94769e-204 1.91791e-204 1.05937e-204 8.11349e-204 3.7185e-204 6.95968e-205 3.47687e-204 4.42453e-204 5.15454e-204 8.14195e-204 2.27527e-204 2.37474e-204 1.3784e-204 2.0604e-204 2.19858e-204 1.05944e-204 2.145e-204 8.72241e-205 5.29206e-204 1.77368e-204 1.03848e-204 7.8079e-204 4.29603e-204 6.95466e-204 1.74679e-204 2.51884e-204 7.06377e-204 2.26212e-204 4.94399e-204 1.75142e-204 2.62461e-204 3.9643e-204 2.61089e-204 3.21953e-204 2.12593e-204 5.63812e-204 1.27796e-204 7.59751e-204 2.81557e-204 5.76498e-205 1.68004e-204 7.27176e-204 7.93491e-204 6.52011e-204 2.86536e-204 1.19256e-204 4.71967e-204 1.17654e-204 2.43455e-204 3.73574e-204 1.13609e-204 6.18266e-205 2.17861e-204 9.29701e-206 1.79317e-207 2.05176e-209 1.54131e-211 7.94131e-214 2.84176e-216 6.97363e-219 1.12312e-221 1.07192e-224 4.60391e-228 0 0 0 0 0 0 0 0 0 0 0 0 0 0 0 0 0 0 0 0 0 0 0 0 0 0 0 0 0 0 0 0 0 0 0 0 0 0 0 0 0 0 0 0 0 
0 0 0 0 0 0 0 0 0 0 0 0 0 0 0 0 0 0 0 0 0 0 0 0 0 0 0 0 0 0 0 0 0 0 0 0 0 0 0 0 0 0 0 0 0 0 0 0 0 0 0 0 0 0 0 0 0 0 0 0 0 0 0 0 0 0 0 0 0 0 0 0 0 0 0 0 0 0 0 0 0 0 0 0 0 0 0 0 0 1.31188e-226 3.36112e-223 3.91446e-220 2.7355e-217 1.27452e-214 4.15719e-212 9.68714e-210 1.61276e-207 1.88029e-205 1.46269e-203 6.84129e-202 1.46663e-200 7.27225e-201 1.30333e-200 9.14055e-201 1.52843e-200 1.19007e-200 2.89148e-201 4.40136e-201 6.51549e-201 7.12419e-201 1.81102e-201 8.70875e-201 1.04069e-201 1.02793e-200 8.88244e-201 2.57228e-201 7.20432e-201 7.69853e-201 1.32872e-200 7.28739e-201 1.49764e-200 1.057e-200 1.20439e-201 8.83549e-201 1.24119e-201 1.44477e-200 1.18984e-200 6.79489e-201 5.93317e-201 5.85894e-201 1.46268e-200 7.72007e-201 6.28964e-201 6.04881e-201 1.17468e-200 5.70151e-201 1.22027e-200 1.25058e-200 1.23209e-200 1.48011e-200 1.17468e-200 6.55912e-201 1.20746e-201 1.29692e-200 6.90843e-201 1.32595e-200 9.55179e-202 7.37655e-201 9.5784e-201 3.7439e-201 2.12388e-201 1.56732e-200 7.23561e-201 1.40043e-201 6.73955e-201 8.5941e-201 1.00331e-200 1.57497e-200 4.4695e-201 4.60394e-201 2.69121e-201 3.99799e-201 4.26009e-201 2.07652e-201 4.14736e-201 1.7413e-201 1.02163e-200 3.46829e-201 2.07969e-201 1.50882e-200 8.39777e-201 1.34493e-200 3.44263e-201 4.92465e-201 1.3649e-200 4.45652e-201 9.5568e-201 3.43598e-201 5.10222e-201 7.67947e-201 5.08794e-201 6.24039e-201 4.16768e-201 1.08898e-200 2.57095e-201 1.46726e-200 5.49082e-201 1.14768e-201 3.30114e-201 1.40901e-200 1.54029e-200 1.26511e-200 5.58276e-201 2.35954e-201 9.11132e-201 2.32508e-201 4.72991e-201 7.22526e-201 2.22396e-201 1.21871e-201 4.20203e-201 1.97103e-202 4.22299e-204 5.43531e-206 4.66602e-208 2.80461e-210 1.20429e-212 3.69403e-215 7.93221e-218 1.13557e-220 9.75441e-224 3.80869e-227 0 0 0 0 0 0 0 0 0 0 0 0 0 0 0 0 0 0 0 0 0 0 0 0 0 0 0 0 0 0 0 0 0 0 0 0 0 0 0 0 0 0 0 0 
0 0 0 0 0 0 0 0 0 0 0 0 0 0 0 0 0 0 0 0 0 0 0 0 0 0 0 0 0 0 0 0 0 0 0 0 0 0 0 0 0 0 0 0 0 0 0 0 0 0 0 0 0 0 0 0 0 0 0 0 0 0 0 0 0 0 0 0 0 0 0 0 0 0 0 0 0 0 0 0 0 0 0 0 0 0 0 0 9.83912e-226 2.74997e-222 3.5229e-219 2.73533e-216 1.43368e-213 5.34407e-211 1.45268e-208 2.90166e-206 4.22736e-204 4.38156e-202 3.06825e-200 1.30515e-198 2.56792e-197 1.2907e-197 2.28878e-197 1.61762e-197 2.68576e-197 2.09219e-197 5.17194e-198 7.75526e-198 1.14635e-197 1.25032e-197 3.28119e-198 1.52307e-197 1.9606e-198 1.80268e-197 1.56085e-197 4.61157e-198 1.26575e-197 1.35969e-197 2.33212e-197 1.29375e-197 2.62946e-197 1.8582e-197 2.24912e-198 1.54493e-197 2.3434e-198 2.53366e-197 2.09406e-197 1.19991e-197 1.04559e-197 1.03857e-197 2.56526e-197 1.36386e-197 1.10863e-197 1.06982e-197 2.06048e-197 1.01351e-197 2.14504e-197 2.20275e-197 2.17247e-197 2.6035e-197 2.06774e-197 1.15515e-197 2.25556e-198 2.27151e-197 1.22612e-197 2.32195e-197 1.82321e-198 1.29605e-197 1.68116e-197 6.62559e-198 3.85518e-198 2.74501e-197 1.27639e-197 2.55096e-198 1.18443e-197 1.51339e-197 1.77044e-197 2.76217e-197 7.95756e-198 8.09266e-198 4.76319e-198 7.03319e-198 7.48382e-198 3.68907e-198 7.2706e-198 3.14795e-198 1.78813e-197 6.14791e-198 3.77114e-198 2.64351e-197 1.48802e-197 2.3581e-197 6.14897e-198 8.72808e-198 2.39115e-197 7.95628e-198 1.67491e-197 6.10979e-198 8.9923e-198 1.34873e-197 8.98841e-198 1.09665e-197 7.4055e-198 1.90699e-197 4.68112e-198 2.5691e-197 9.707e-198 2.07018e-198 5.8793e-198 2.47525e-197 2.71067e-197 2.22547e-197 9.86122e-198 4.23011e-198 1.59474e-197 4.16346e-198 8.33117e-198 1.26695e-197 3.9463e-198 2.17712e-198 7.34809e-198 3.7572e-199 8.85264e-201 1.26584e-202 1.22242e-204 8.3968e-207 4.20632e-209 1.54824e-211 4.15558e-214 7.93198e-217 1.022e-219 7.98084e-223 2.85652e-226 0 0 0 0 0 0 0 0 0 0 0 0 0 0 0 0 0 0 0 0 0 0 0 0 0 0 0 0 0 0 0 0 0 0 0 0 0 0 0 0 0 0 0 
0 0 0 0 0 0 0 0 0 0 0 0 0 0 0 0 0 0 0 0 0 0 0 0 0 0 0 0 0 0 0 0 0 0 0 0 0 0 0 0 0 0 0 0 0 0 0 0 0 0 0 0 0 0 0 0 0 0 0 0 0 0 0 0 0 0 0 0 0 0 0 0 0 0 0 0 0 0 0 0 0 0 0 0 0 0 0 6.73601e-225 2.03954e-221 2.85027e-218 2.43433e-215 1.41764e-212 5.9445e-210 1.8466e-207 4.30276e-205 7.52079e-203 9.74032e-201 9.08728e-199 5.78624e-197 2.25714e-195 4.10447e-194 2.0907e-194 3.66916e-194 2.61293e-194 4.30814e-194 3.35761e-194 8.44126e-195 1.24741e-194 1.84109e-194 2.00315e-194 5.42012e-195 2.43166e-194 3.35443e-195 2.88592e-194 2.50372e-194 7.54299e-195 2.03008e-194 2.19197e-194 3.73663e-194 2.09625e-194 4.21436e-194 2.98201e-194 3.81884e-195 2.46612e-194 4.01691e-195 4.0561e-194 3.36417e-194 1.93416e-194 1.68207e-194 1.6803e-194 4.10697e-194 2.19928e-194 1.78381e-194 1.72706e-194 3.29936e-194 1.64425e-194 3.44208e-194 3.54168e-194 3.49664e-194 4.18041e-194 3.3225e-194 1.85712e-194 3.83099e-195 3.6319e-194 1.98602e-194 3.71189e-194 3.15473e-195 2.07872e-194 2.69353e-194 1.0703e-194 6.3798e-195 4.38873e-194 2.05526e-194 4.23585e-195 1.90019e-194 2.43274e-194 2.85163e-194 4.42218e-194 1.29292e-194 1.29859e-194 7.69479e-195 1.12942e-194 1.20013e-194 5.98132e-195 1.16357e-194 5.18927e-195 2.85702e-194 9.94688e-195 6.23492e-195 4.22803e-194 2.40646e-194 3.77431e-194 1.0022e-194 1.4119e-194 3.82403e-194 1.2961e-194 2.67969e-194 9.91503e-195 1.44668e-194 2.16232e-194 1.44939e-194 1.75929e-194 1.2009e-194 3.04857e-194 7.76815e-195 4.10645e-194 1.56634e-194 3.40683e-195 9.55611e-195 3.96939e-194 4.35452e-194 3.57367e-194 1.59e-194 6.91888e-195 2.54808e-194 6.80206e-195 1.33953e-194 2.02799e-194 6.39116e-195 3.54891e-195 1.173e-194 6.49242e-196 1.66836e-197 2.6238e-199 2.8151e-201 2.17529e-203 1.24531e-205 5.34747e-208 1.72231e-210 4.10924e-213 7.0593e-216 8.26881e-219 5.91909e-222 1.95562e-225 0 0 0 0 0 0 0 0 0 0 0 0 0 0 0 0 0 0 0 0 0 0 0 0 0 0 0 0 0 0 0 0 0 0 0 0 0 0 0 0 0 0 
0 0 0 0 0 0 0 0 0 0 0 0 0 0 0 0 0 0 0 0 0 0 0 0 0 0 0 0 0 0 0 0 0 0 0 0 0 0 0 0 0 0 0 0 0 0 0 0 0 0 0 0 0 0 0 0 0 0 0 0 0 0 0 0 0 0 0 0 0 0 0 0 0 0 0 0 0 0 0 0 0 0 0 0 0 0 4.23406e-224 1.3806e-220 2.09015e-217 1.94738e-214 1.24744e-211 5.8118e-209 2.03094e-206 5.40788e-204 1.10264e-201 1.71328e-199 1.99721e-197 1.69414e-195 9.89052e-194 3.56291e-192 6.02375e-191 3.10876e-191 5.40087e-191 3.87485e-191 6.34507e-191 4.94742e-191 1.26448e-191 1.84224e-191 2.71482e-191 2.94672e-191 8.21132e-192 3.56478e-191 5.24588e-192 4.24208e-191 3.68749e-191 1.13223e-191 2.98962e-191 3.24424e-191 5.49719e-191 3.11797e-191 6.20188e-191 4.39391e-191 5.93262e-192 3.6147e-191 6.29241e-192 5.96214e-191 4.96222e-191 2.86243e-191 2.48457e-191 2.49569e-191 6.03728e-191 3.25593e-191 2.63533e-191 2.55966e-191 4.85091e-191 2.44866e-191 5.07149e-191 5.22837e-191 5.1672e-191 6.1631e-191 4.90168e-191 2.74142e-191 5.95339e-192 5.33204e-191 2.95299e-191 5.4485e-191 4.98233e-192 3.06127e-191 3.96239e-191 1.58739e-191 9.68229e-192 6.44265e-191 3.03843e-191 6.44964e-192 2.79907e-191 3.59048e-191 4.21697e-191 6.5006e-191 1.92824e-191 1.91335e-191 1.14122e-191 1.66523e-191 1.76709e-191 8.90229e-192 1.70988e-191 7.84626e-192 4.1914e-191 1.47746e-191 9.45433e-192 6.20914e-191 3.5727e-191 5.54689e-191 1.49925e-191 2.09679e-191 5.61527e-191 1.93782e-191 3.93656e-191 1.477e-191 2.13692e-191 3.18301e-191 2.14571e-191 2.59144e-191 1.78761e-191 4.47493e-191 1.18188e-191 6.02682e-191 2.32039e-191 5.14488e-192 1.42579e-191 5.8446e-191 6.42268e-191 5.26896e-191 2.35381e-191 1.03852e-191 3.73828e-191 1.01983e-191 1.97748e-191 2.98057e-191 9.50209e-192 5.30972e-192 1.71931e-191 1.02398e-192 2.84985e-194 4.88867e-196 5.76913e-198 4.95297e-200 3.18979e-202 1.56534e-204 5.88175e-207 1.68395e-209 3.61602e-212 5.64733e-215 6.06374e-218 4.00675e-221 1.22924e-224 0 0 0 0 0 0 0 0 0 0 0 0 0 0 0 0 0 0 0 0 0 0 0 0 0 0 0 0 0 0 0 0 0 0 0 0 0 0 0 0 0 
0 0 0 0 0 0 0 0 0 0 0 0 0 0 0 0 0 0 0 0 0 0 0 0 0 0 0 0 0 0 0 0 0 0 0 0 0 0 0 0 0 0 0 0 0 0 0 0 0 0 0 0 0 0 0 0 0 0 0 0 0 0 0 0 0 0 0 0 0 0 0 0 0 0 0 0 0 0 0 0 0 0 0 0 0 2.45576e-223 8.57935e-220 1.39876e-216 1.4118e-213 9.86556e-211 5.05584e-208 1.96299e-205 5.87998e-203 1.37005e-200 2.48322e-198 3.47284e-196 3.68067e-194 2.86237e-192 1.54287e-190 5.16322e-189 8.15789e-188 4.26466e-188 7.33603e-188 5.30178e-188 8.62327e-188 6.7269e-188 1.74718e-188 2.51059e-188 3.69387e-188 4.00001e-188 1.14668e-188 4.8225e-188 7.54039e-189 5.754e-188 5.01142e-188 1.56747e-188 4.06275e-188 4.43041e-188 7.46277e-188 4.27863e-188 8.42183e-188 5.97424e-188 8.47791e-189 4.88931e-188 9.05814e-189 8.08713e-188 6.75382e-188 3.90878e-188 3.38651e-188 3.41995e-188 8.18949e-188 4.44757e-188 3.59259e-188 3.50027e-188 6.58138e-188 3.36419e-188 6.89513e-188 7.122e-188 7.04584e-188 8.38427e-188 6.67276e-188 3.73428e-188 8.51036e-189 7.22366e-188 4.05072e-188 7.38014e-188 7.22387e-189 4.1601e-188 5.37871e-188 2.17236e-188 1.35443e-188 8.72744e-188 4.1447e-188 9.05089e-189 3.80478e-188 4.88979e-188 5.75396e-188 8.81792e-188 2.65289e-188 2.6015e-188 1.56165e-188 2.26557e-188 2.40092e-188 1.22236e-188 2.31874e-188 1.09368e-188 5.67416e-188 2.0248e-188 1.3215e-188 8.41445e-188 4.89362e-188 7.52251e-188 2.06888e-188 2.87302e-188 7.60886e-188 2.67242e-188 5.33646e-188 2.0298e-188 2.91261e-188 4.3236e-188 2.93096e-188 3.52242e-188 2.45485e-188 6.06154e-188 1.65701e-188 8.16225e-188 3.17161e-188 7.1657e-189 1.96254e-188 7.94101e-188 8.74117e-188 7.16837e-188 3.21528e-188 1.43768e-188 5.06094e-188 1.41024e-188 2.69371e-188 4.04223e-188 1.3034e-188 7.32794e-189 2.32545e-188 1.48267e-189 4.4426e-191 8.25482e-193 1.06262e-194 1.00346e-196 7.18017e-199 3.96387e-201 1.70215e-203 5.68534e-206 1.46498e-208 2.85987e-211 4.09426e-214 4.05801e-217 2.4899e-220 7.12962e-224 0 0 0 0 0 0 0 0 0 0 0 0 0 0 0 0 0 0 0 0 0 0 0 0 0 0 0 0 0 0 0 0 0 0 0 0 0 0 0 0 
0 0 0 0 0 0 0 0 0 0 0 0 0 0 0 0 0 0 0 0 0 0 0 0 0 0 0 0 0 0 0 0 0 0 0 0 0 0 0 0 0 0 0 0 0 0 0 0 0 0 0 0 0 0 0 0 0 0 0 0 0 0 0 0 0 0 0 0 0 0 0 0 0 0 0 0 0 0 0 0 0 0 0 0 1.31997e-222 4.91879e-219 8.59225e-216 9.33934e-213 7.06998e-210 3.95247e-207 1.688e-204 5.61782e-202 1.47248e-199 3.04985e-197 4.97538e-195 6.32609e-193 6.14657e-191 4.41297e-189 2.20927e-187 6.9035e-186 1.02392e-184 5.42079e-185 9.23499e-185 6.72213e-185 1.08611e-184 8.47647e-185 2.23651e-185 3.17082e-185 4.65772e-185 5.03219e-185 1.48251e-185 6.04643e-185 1.00096e-185 7.23326e-185 6.31181e-185 2.01012e-185 5.11683e-185 5.60664e-185 9.38933e-185 5.4403e-185 1.05989e-184 7.52802e-185 1.11964e-185 6.1294e-185 1.20406e-185 1.01663e-184 8.51875e-185 4.94641e-185 4.27781e-185 4.34261e-185 1.02955e-184 5.6299e-185 4.53886e-185 4.4355e-185 8.27535e-185 4.28256e-185 8.688e-185 8.9907e-185 8.90351e-185 1.05705e-184 8.41825e-185 4.71425e-185 1.12429e-185 9.06993e-185 5.14846e-185 9.26477e-185 9.66359e-186 5.23936e-185 6.76647e-185 2.755e-185 1.75408e-185 1.09568e-184 5.23937e-185 1.17576e-185 4.79312e-185 6.17142e-185 7.27562e-185 1.10854e-184 3.38163e-185 3.27821e-185 1.98023e-185 2.85652e-185 3.02318e-185 1.55513e-185 2.91426e-185 1.41151e-185 7.119e-185 2.57137e-185 1.7102e-185 1.05681e-184 6.21096e-185 9.45484e-185 2.64495e-185 3.64782e-185 9.55532e-185 3.41427e-185 6.70457e-185 2.58459e-185 3.67901e-185 5.44277e-185 3.71001e-185 4.43729e-185 3.12351e-185 7.60963e-185 2.15028e-185 1.02449e-184 4.01715e-185 9.24458e-186 2.50295e-185 9.99918e-185 1.1025e-184 9.03811e-185 4.07021e-185 1.8436e-185 6.34994e-185 1.80642e-185 3.40054e-185 5.08055e-185 1.65664e-185 9.36934e-186 2.91497e-185 1.98073e-186 6.35706e-188 1.27189e-189 1.77355e-191 1.82695e-193 1.43792e-195 8.81988e-198 4.26069e-200 1.62638e-202 4.88915e-205 1.14531e-207 2.04953e-210 2.70847e-213 2.49276e-216 1.42754e-219 3.83217e-223 0 0 0 0 0 0 0 0 0 0 0 0 0 0 0 0 0 0 0 0 0 0 0 0 0 0 0 0 0 0 0 0 0 0 0 0 0 0 0 
0 0 0 0 0 0 0 0 0 0 0 0 0 0 0 0 0 0 0 0 0 0 0 0 0 0 0 0 0 0 0 0 0 0 0 0 0 0 0 0 0 0 0 0 0 0 0 0 0 0 0 0 0 0 0 0 0 0 0 0 0 0 0 0 0 0 0 0 0 0 0 0 0 0 0 0 0 0 0 0 0 0 0 6.59985e-222 2.61309e-218 4.86887e-215 5.67017e-212 4.6225e-209 2.7995e-206 1.30425e-203 4.77457e-201 1.39044e-198 3.23968e-196 6.0394e-194 8.95726e-192 1.04407e-189 9.365e-188 6.24431e-186 2.91837e-184 8.55318e-183 1.19558e-181 6.40861e-182 1.08151e-181 7.92781e-182 1.27258e-181 9.93621e-182 2.66229e-182 3.72542e-182 5.46334e-182 5.88935e-182 1.78137e-182 7.05268e-182 1.23224e-182 8.45887e-182 7.39519e-182 2.39691e-182 5.99516e-182 6.59982e-182 1.09897e-181 6.43381e-182 1.24086e-181 8.82443e-182 1.37206e-182 7.14865e-182 1.48407e-182 1.18891e-181 9.99533e-182 5.82267e-182 5.02691e-182 5.12892e-182 1.20406e-181 6.62902e-182 5.33448e-182 5.22815e-182 9.67996e-182 5.07041e-182 1.01838e-181 1.0558e-181 1.0466e-181 1.23973e-181 9.87954e-182 5.53647e-182 1.37822e-182 1.05943e-181 6.08611e-182 1.082e-181 1.19788e-182 6.13857e-182 7.91867e-182 3.2501e-182 2.1112e-182 1.27966e-181 6.16095e-182 1.41937e-182 5.61724e-182 7.24566e-182 8.55761e-182 1.29644e-181 4.00892e-182 3.84303e-182 2.33566e-182 3.3504e-182 3.54125e-182 1.84015e-182 3.4075e-182 1.69324e-182 8.30906e-182 3.03741e-182 2.057e-182 1.23479e-181 7.33207e-182 1.10552e-181 3.14463e-182 4.30807e-182 1.11632e-181 4.05639e-182 7.8363e-182 3.06085e-182 4.32293e-182 6.37385e-182 4.36828e-182 5.20008e-182 3.69633e-182 8.8873e-182 2.59275e-182 1.19627e-181 4.73282e-182 1.10894e-182 2.9689e-182 1.17128e-181 1.29355e-181 1.06008e-181 4.79298e-182 2.19825e-182 7.41186e-182 2.15158e-182 3.99341e-182 5.94031e-182 1.95849e-182 1.11404e-182 3.3992e-182 2.45196e-183 8.39158e-185 1.7986e-186 2.70069e-188 3.01366e-190 2.58744e-192 1.74572e-194 9.36994e-197 4.02364e-199 1.38234e-201 3.77783e-204 8.11239e-207 1.34006e-209 1.64441e-212 1.41256e-215 7.5838e-219 1.91608e-222 0 0 0 0 0 0 0 0 0 0 0 0 0 0 0 0 0 0 0 0 0 0 0 0 0 0 0 0 0 0 0 0 0 0 0 0 0 0 